============================== echo of input deck ==============================
echo

start molecule

memory total 40 gb

print low

title "der1"
charge 0

dft
  mult 1
end

geometry units angstroms print xyz autosym
 # load format xyz der1.pbe0_tz2p_good_cosmo-chcl3_optimized_geom.xyz
  load format xyz der1_pbe0_geom_6-311++g2d_2p-038_converged.xyz
end

basis
  * library 6-311++G(2d,2p)
end

dft
  direct
  grid fine
  xc b3lyp
  mult 1
# Reduce output during geometry optimization
  noprint "final vectors analysis"
end

#end

driver
  tight
  maxiter 9999
  xyz der1_b3lyp_geom_6-311++g2d_2p
end

cosmo
  solvent chcl3
end

task dft optimize
================================================================================

         Total DFT energy =    -1418.021213781324
@ Step       Energy      Delta E   Gmax     Grms     Xrms     Xmax   Walltime
@ ---- ---------------- -------- -------- -------- -------- -------- --------
@    0   -1418.02121378  0.0D+00  0.00873  0.00198  0.00000  0.00000  11799.0
         Total DFT energy =    -1418.022663505487
         Total DFT energy =  -1418.022663505487
@    1   -1418.02266351 -1.4D-03  0.00427  0.00040  0.05985  0.13689  16615.0
         Total DFT energy =    -1418.022824170611
         Total DFT energy =    -1418.022843074112
@    2   -1418.02284307 -1.8D-04  0.00213  0.00022  0.02119  0.05776  25669.7
         Total DFT energy =    -1418.022887751325
         Total DFT energy =    -1418.022901297091
@    3   -1418.02290130 -5.8D-05  0.00062  0.00011  0.00959  0.02922  34757.1
         Total DFT energy =    -1418.022916260336
         Total DFT energy =    -1418.022920768503
@    4   -1418.02292077 -1.9D-05  0.00049  0.00007  0.00783  0.02174  43660.8
         Total DFT energy =    -1418.022929123697
         Total DFT energy =    -1418.022931203294
@    5   -1418.02293120 -1.0D-05  0.00055  0.00007  0.00632  0.01652  52730.4
         Total DFT energy =    -1418.022938046311
         Total DFT energy =    -1418.022944327234
@    6   -1418.02294433 -1.3D-05  0.00039  0.00008  0.01022  0.03965  61761.8
         Total DFT energy =    -1418.022949368173
         Total DFT energy =    -1418.022950318961
@    7   -1418.02295032 -6.0D-06  0.00017  0.00003  0.00380  0.01141  70879.6
         Total DFT energy =    -1418.022952297059
         Total DFT energy =  -1418.022952297059
@    8   -1418.02295230 -2.0D-06  0.00011  0.00002  0.00205  0.00742  75776.2
         Total DFT energy =    -1418.022954468288
         Total DFT energy =  -1418.022954468288
@    9   -1418.02295447 -2.2D-06  0.00007  0.00002  0.00437  0.01623  80612.5
         Total DFT energy =    -1418.022955575859
         Total DFT energy =  -1418.022955575859
@   10   -1418.02295558 -1.1D-06  0.00008  0.00002  0.00266  0.00882  85560.0
         Total DFT energy =    -1418.022956887216
         Total DFT energy =  -1418.022956887216
@   11   -1418.02295689 -1.3D-06  0.00007  0.00001  0.00531  0.01723  90488.5
         Total DFT energy =    -1418.022957598550
         Total DFT energy =  -1418.022957598550
@   12   -1418.02295760 -7.1D-07  0.00005  0.00001  0.00242  0.00682  95306.3
         Total DFT energy =    -1418.022957988349
         Total DFT energy =  -1418.022957988349
@   13   -1418.02295799 -3.9D-07  0.00002  0.00001  0.00174  0.00473 100122.7
         Total DFT energy =    -1418.022958123316
         Total DFT energy =  -1418.022958123316
@   14   -1418.02295812 -1.3D-07  0.00002  0.00001  0.00071  0.00202 105061.4
         Total DFT energy =    -1418.022958281733
         Total DFT energy =  -1418.022958281733
@   15   -1418.02295828 -1.6D-07  0.00003  0.00001  0.00093  0.00293 110067.7
         Total DFT energy =    -1418.022958426666
         Total DFT energy =  -1418.022958426666
@   16   -1418.02295843 -1.4D-07  0.00004  0.00001  0.00139  0.00423 115008.9
         Total DFT energy =    -1418.022958569020
         Total DFT energy =  -1418.022958569020
@   17   -1418.02295857 -1.4D-07  0.00003  0.00001  0.00118  0.00477 119844.3
         Total DFT energy =    -1418.022958757437
         Total DFT energy =  -1418.022958757437
@   18   -1418.02295876 -1.9D-07  0.00003  0.00000  0.00286  0.00918 124824.7
         Total DFT energy =    -1418.022958834649
         Total DFT energy =  -1418.022958834649
@   19   -1418.02295883 -7.7D-08  0.00002  0.00000  0.00056  0.00169 129698.8
         Total DFT energy =    -1418.022958892263
         Total DFT energy =  -1418.022958892263
@   20   -1418.02295889 -5.8D-08  0.00001  0.00000  0.00062  0.00180 134498.9
         Total DFT energy =    -1418.022958904131
         Total DFT energy =  -1418.022958904131
@   21   -1418.02295890 -1.2D-08  0.00001  0.00000  0.00025  0.00076 139342.5
         Total DFT energy =    -1418.022958902586
         Total DFT energy =  -1418.022958902586
@   22   -1418.02295890  1.5D-09  0.00000  0.00000  0.00017  0.00045 143671.0
         Total DFT energy =    -1418.022958896926
         Total DFT energy =  -1418.022958896926
@   23   -1418.02295890  5.7D-09  0.00000  0.00000  0.00007  0.00020 147099.2
         Total DFT energy =    -1418.022958902498
         Total DFT energy =  -1418.022958902498
@   24   -1418.02295890 -5.6D-09  0.00000  0.00000  0.00010  0.00028 150500.2
         Total DFT energy =    -1418.022958897287
         Total DFT energy =  -1418.022958897287
@   25   -1418.02295890  5.2D-09  0.00000  0.00000  0.00006  0.00015 153902.9
         Total DFT energy =    -1418.022958903323
         Total DFT energy =  -1418.022958903323
@   26   -1418.02295890 -6.0D-09  0.00000  0.00000  0.00014  0.00039 157351.6
         Total DFT energy =    -1418.022958897504
         Total DFT energy =  -1418.022958897504
@   27   -1418.02295890  5.8D-09  0.00000  0.00000  0.00005  0.00015 160787.4
         Total DFT energy =    -1418.022958898696
         Total DFT energy =  -1418.022958898696
@   28   -1418.02295890 -1.2D-09  0.00000  0.00000  0.00005  0.00017 164217.3
         Total DFT energy =    -1418.022958898255
         Total DFT energy =  -1418.022958898255
@   29   -1418.02295890  4.4D-10  0.00000  0.00000  0.00008  0.00023 167662.4
         Total DFT energy =    -1418.022958898178
         Total DFT energy =  -1418.022958898178
@   30   -1418.02295890  7.7D-11  0.00000  0.00000  0.00006  0.00015 171103.4
         Total DFT energy =    -1418.022958899380
         Total DFT energy =  -1418.022958899380
@   31   -1418.02295890 -1.2D-09  0.00000  0.00000  0.00008  0.00023 174540.4
         Total DFT energy =    -1418.022958898353
         Total DFT energy =  -1418.022958898353
@   32   -1418.02295890  1.0D-09  0.00000  0.00000  0.00012  0.00035 177986.8
         Total DFT energy =    -1418.022959258285
         Total DFT energy =  -1418.022959258285
@   82   -1418.02295926 -2.7D-08  0.00000  0.00000  0.00030  0.00088 381000.8
         Total DFT energy =    -1418.022959231041
         Total DFT energy =  -1418.022959231041
@   83   -1418.02295923  2.7D-08  0.00000  0.00000  0.00027  0.00083 386375.5
         Total DFT energy =    -1418.022959257395
         Total DFT energy =  -1418.022959257395
@   84   -1418.02295926 -2.6D-08  0.00000  0.00000  0.00028  0.00085 391737.7
         Total DFT energy =    -1418.022959231047
         Total DFT energy =  -1418.022959231047
@   85   -1418.02295923  2.6D-08  0.00000  0.00000  0.00025  0.00075 397108.8
         Total DFT energy =    -1418.022959256824
         Total DFT energy =  -1418.022959256824
@   86   -1418.02295926 -2.6D-08  0.00000  0.00000  0.00027  0.00082 402437.9
         Total DFT energy =    -1418.022959229781
         Total DFT energy =  -1418.022959229781
@   87   -1418.02295923  2.7D-08  0.00000  0.00000  0.00025  0.00076 407746.0
         Total DFT energy =    -1418.022959237616
         Total DFT energy =  -1418.022959237616
@   88   -1418.02295924 -7.8D-09  0.00000  0.00000  0.00027  0.00080 413057.8
         Total DFT energy =    -1418.022959228345
         Total DFT energy =  -1418.022959228345
@   89   -1418.02295923  9.3D-09  0.00000  0.00000  0.00028  0.00085 418288.3
         Total DFT energy =    -1418.022959236243
         Total DFT energy =  -1418.022959236243
@   90   -1418.02295924 -7.9D-09  0.00000  0.00000  0.00027  0.00080 423607.9
         Total DFT energy =    -1418.022959225504
         Total DFT energy =  -1418.022959225504
@   91   -1418.02295923  1.1D-08  0.00000  0.00000  0.00028  0.00085 428803.8
         Total DFT energy =    -1418.022959234903
         Total DFT energy =  -1418.022959234903
@   92   -1418.02295923 -9.4D-09  0.00000  0.00000  0.00028  0.00084 434822.7
         Total DFT energy =    -1418.022959225316
         Total DFT energy =  -1418.022959225316
@   93   -1418.02295923  9.6D-09  0.00000  0.00000  0.00028  0.00084 440398.4
         Total DFT energy =    -1418.022959233615
         Total DFT energy =  -1418.022959233615
@   94   -1418.02295923 -8.3D-09  0.00000  0.00000  0.00028  0.00083 443799.4
         Total DFT energy =    -1418.022959224347
         Total DFT energy =  -1418.022959224347
@   95   -1418.02295922  9.3D-09  0.00000  0.00000  0.00027  0.00081 447202.7
         Total DFT energy =    -1418.022959233176
         Total DFT energy =  -1418.022959233176
@   96   -1418.02295923 -8.8D-09  0.00000  0.00000  0.00029  0.00086 450615.6
         Total DFT energy =    -1418.022959226152
         Total DFT energy =  -1418.022959226152
@   97   -1418.02295923  7.0D-09  0.00000  0.00000  0.00019  0.00058 454043.5
         Total DFT energy =    -1418.022959232325
         Total DFT energy =  -1418.022959232325
@   98   -1418.02295923 -6.2D-09  0.00000  0.00000  0.00020  0.00061 457457.9
         Total DFT energy =    -1418.022959225292
         Total DFT energy =  -1418.022959225292
@   99   -1418.02295923  7.0D-09  0.00000  0.00000  0.00019  0.00058 460875.0
         Total DFT energy =    -1418.022959230892
         Total DFT energy =  -1418.022959230892
@  100   -1418.02295923 -5.6D-09  0.00000  0.00000  0.00020  0.00059 464274.2
         Total DFT energy =    -1418.022959224202
         Total DFT energy =  -1418.022959224202
@  101   -1418.02295922  6.7D-09  0.00000  0.00000  0.00016  0.00046 467694.9
         Total DFT energy =    -1418.022959219522
         Total DFT energy =  -1418.022959219522
@  102   -1418.02295922  4.7D-09  0.00000  0.00000  0.00010  0.00030 471109.6
         Total DFT energy =    -1418.022959229445
         Total DFT energy =  -1418.022959229445
@  103   -1418.02295923 -9.9D-09  0.00000  0.00000  0.00025  0.00072 474541.7
         Total DFT energy =    -1418.022959222602
         Total DFT energy =  -1418.022959222602
@  104   -1418.02295922  6.8D-09  0.00000  0.00000  0.00014  0.00038 477950.5
         Total DFT energy =    -1418.022959217734
         Total DFT energy =  -1418.022959217734
@  105   -1418.02295922  4.9D-09  0.00000  0.00000  0.00012  0.00038 481347.1
         Total DFT energy =    -1418.022959227936
         Total DFT energy =  -1418.022959227936
@  106   -1418.02295923 -1.0D-08  0.00000  0.00000  0.00025  0.00075 484752.5
         Total DFT energy =    -1418.022959220766
         Total DFT energy =  -1418.022959220766
@  107   -1418.02295922  7.2D-09  0.00000  0.00000  0.00015  0.00044 488134.3
         Total DFT energy =    -1418.022959216972
         Total DFT energy =  -1418.022959216972
@  108   -1418.02295922  3.8D-09  0.00000  0.00000  0.00009  0.00026 491553.5
         Total DFT energy =    -1418.022959226472
         Total DFT energy =  -1418.022959226472
@  109   -1418.02295923 -9.5D-09  0.00000  0.00000  0.00022  0.00066 494964.9
         Total DFT energy =    -1418.022959221855
         Total DFT energy =  -1418.022959221855
@  110   -1418.02295922  4.6D-09  0.00000  0.00000  0.00011  0.00033 498361.0
         Total DFT energy =    -1418.022959216857
         Total DFT energy =  -1418.022959216857
@  111   -1418.02295922  5.0D-09  0.00000  0.00000  0.00012  0.00031 501750.4
         Total DFT energy =    -1418.022959216073
         Total DFT energy =  -1418.022959216073
@  112   -1418.02295922  7.8D-10  0.00000  0.00000  0.00004  0.00009 505136.0
         Total DFT energy =    -1418.022959216508
         Total DFT energy =  -1418.022959216508
@  113   -1418.02295922 -4.4D-10  0.00000  0.00000  0.00002  0.00006 508521.7
         Total DFT energy =    -1418.022959215954
         Total DFT energy =  -1418.022959215954
@  114   -1418.02295922  5.5D-10  0.00000  0.00000  0.00002  0.00005 511924.4
@  114   -1418.02295922  5.5D-10  0.00000  0.00000  0.00002  0.00005 511924.4

 Output coordinates in angstroms (scale by  1.889725989 to convert to a.u.)

  No.       Tag          Charge          X              Y              Z
 ---- ---------------- ---------- -------------- -------------- --------------
    1 S                   16.0000     1.22404361    -0.06127942     0.60366409
    2 P                   15.0000    -0.16499453     1.04910064    -0.67444763
    3 O                    8.0000     0.66342475     2.38144198    -1.17994012
    4 O                    8.0000    -1.03945234     1.89064159     0.45321641
    5 C                    6.0000     0.51075133     3.54196150    -0.28750410
    6 C                    6.0000    -0.92690476     3.34583038     0.29842288
    7 C                    6.0000     1.61446649     3.48755210     0.76776415
    8 C                    6.0000     0.67041818     4.78491460    -1.15198119
    9 C                    6.0000    -2.03843119     3.79347166    -0.65187459
   10 C                    6.0000    -1.13043657     3.95997968     1.67656894
   11 H                    1.0000     1.61733387     4.39849454     1.36481275
   12 H                    1.0000     1.50236702     2.64130061     1.44219657
   13 H                    1.0000     2.57823629     3.40569900     0.26793685
   14 H                    1.0000     0.01048714     4.76161480    -2.01517645
   15 H                    1.0000     0.45140243     5.67877582    -0.56738832
   16 H                    1.0000     1.69869004     4.85658802    -1.50419224
   17 H                    1.0000    -2.07862389     4.87958998    -0.72172885
   18 H                    1.0000    -1.90135687     3.38844581    -1.65340469
   19 H                    1.0000    -2.99334605     3.44150944    -0.26454430
   20 H                    1.0000    -0.97280571     5.03816893     1.63223346
   21 H                    1.0000    -2.15192228     3.78066833     2.00919013
   22 H                    1.0000    -0.44895007     3.53780470     2.41033164
   23 C                    6.0000     0.97328374    -1.73684069    -0.13517536
   24 C                    6.0000    -0.17371995    -2.50029413     0.52209854
   25 N                    7.0000    -0.28388461    -3.86809793     0.00770920
   26 C                    6.0000     0.78229985    -4.75344911     0.52661758
   27 C                    6.0000     1.61457142    -5.42404404    -0.56514945
   28 C                    6.0000    -1.90252031    -5.69615678    -0.56571626
   29 C                    6.0000    -1.63249529    -4.41509079     0.21682207
   30 H                    1.0000     0.80109532    -1.62456708    -1.20425965
   31 H                    1.0000     1.92638801    -2.24414180    -0.00376344
   32 H                    1.0000    -1.10409359    -1.97620406     0.30348793
   33 H                    1.0000    -0.04669928    -2.48030305     1.61487975
   34 H                    1.0000    -1.81926233    -4.59833268     1.28779332
   35 H                    1.0000    -2.34519333    -3.65355827    -0.10067435
   36 H                    1.0000    -1.76663892    -5.53724775    -1.63624839
   37 H                    1.0000    -2.93095551    -6.01843593    -0.39677217
   38 H                    1.0000    -1.24820903    -6.51115753    -0.25695466
   39 H                    1.0000     0.34055589    -5.51823219     1.17348662
   40 H                    1.0000     1.44671691    -4.16991181     1.16701893
   41 H                    1.0000     0.99535385    -6.04442042    -1.21253853
   42 H                    1.0000     2.38270830    -6.05944699    -0.11920467
   43 H                    1.0000     2.10924520    -4.67738817    -1.18731115

 Total times  cpu:   511747.6s     wall:   511924.4s
