============================== echo of input deck ==============================
echo

start molecule

memory total 40 gb

print low

title "der1"
charge 0

dft
  mult 1
end

geometry units angstroms print xyz autosym
  load format xyz der1.pbe0_tz2p_good_cosmo-chcl3_optimized_geom.xyz
end

basis
  * library 6-311++G(2d,2p)
end

dft
  direct
  grid fine
  xc pbe0
  mult 1
# Reduce output during geometry optimization
  noprint "final vectors analysis"
end

#end

driver
  tight
  maxiter 9999
  xyz der1_pbe0_geom_6-311++g2d_2p
end

cosmo
  solvent chcl3
end

task dft optimize
================================================================================

         Total DFT energy =    -1416.906792943046
@ Step       Energy      Delta E   Gmax     Grms     Xrms     Xmax   Walltime
@ ---- ---------------- -------- -------- -------- -------- -------- --------
@    0   -1416.90679294  0.0D+00  0.00381  0.00060  0.00000  0.00000  10686.9
         Total DFT energy =    -1416.906997785896
         Total DFT energy =    -1416.907030488958
@    1   -1416.90703049 -2.4D-04  0.00122  0.00019  0.03411  0.11215  18388.7
         Total DFT energy =    -1416.907088393842
         Total DFT energy =    -1416.907099446253
@    2   -1416.90709945 -6.9D-05  0.00099  0.00014  0.02674  0.08286  26078.3
         Total DFT energy =    -1416.907127674883
         Total DFT energy =    -1416.907142874674
@    3   -1416.90714287 -4.3D-05  0.00058  0.00010  0.02881  0.10006  34042.4
         Total DFT energy =    -1416.907154056325
         Total DFT energy =    -1416.907157005592
@    4   -1416.90715701 -1.4D-05  0.00038  0.00006  0.00623  0.01724  41431.9
         Total DFT energy =    -1416.907161931321
         Total DFT energy =  -1416.907161931321
@    5   -1416.90716193 -4.9D-06  0.00025  0.00004  0.00523  0.01445  45432.2
         Total DFT energy =    -1416.907167898001
         Total DFT energy =    -1416.907168461226
@    6   -1416.90716846 -6.5D-06  0.00020  0.00004  0.01300  0.03619  52895.1
         Total DFT energy =    -1416.907170860683
         Total DFT energy =  -1416.907170860683
@    7   -1416.90717086 -2.4D-06  0.00020  0.00003  0.00348  0.00957  56914.4
         Total DFT energy =    -1416.907174343496
         Total DFT energy =  -1416.907174343496
@    8   -1416.90717434 -3.5D-06  0.00011  0.00002  0.00825  0.02293  60892.3
         Total DFT energy =    -1416.907174855445
         Total DFT energy =  -1416.907174855445
@    9   -1416.90717486 -5.1D-07  0.00007  0.00001  0.00190  0.00494  64942.4
         Total DFT energy =    -1416.907175336340
         Total DFT energy =  -1416.907175336340
@   10   -1416.90717534 -4.8D-07  0.00006  0.00001  0.00293  0.00914  68938.2
         Total DFT energy =    -1416.907175704931
         Total DFT energy =  -1416.907175704931
@   11   -1416.90717570 -3.7D-07  0.00007  0.00001  0.00129  0.00368  72965.0
         Total DFT energy =    -1416.907176339820
         Total DFT energy =  -1416.907176339820
@   12   -1416.90717634 -6.3D-07  0.00011  0.00001  0.00262  0.00711  76999.7
         Total DFT energy =    -1416.907176942955
         Total DFT energy =  -1416.907176942955
@   13   -1416.90717694 -6.0D-07  0.00012  0.00002  0.00355  0.01000  81020.4
         Total DFT energy =    -1416.907177515596
         Total DFT energy =  -1416.907177515596
@   14   -1416.90717752 -5.7D-07  0.00007  0.00001  0.00292  0.00803  85046.4
         Total DFT energy =    -1416.907178009823
         Total DFT energy =  -1416.907178009823
@   15   -1416.90717801 -4.9D-07  0.00005  0.00001  0.00264  0.00869  89063.5
         Total DFT energy =    -1416.907178293604
         Total DFT energy =  -1416.907178293604
@   16   -1416.90717829 -2.8D-07  0.00004  0.00001  0.00143  0.00413  93069.7
         Total DFT energy =    -1416.907178535059
         Total DFT energy =  -1416.907178535059
@   17   -1416.90717854 -2.4D-07  0.00006  0.00001  0.00162  0.00482  97117.2
         Total DFT energy =    -1416.907178759719
         Total DFT energy =  -1416.907178759719
@   18   -1416.90717876 -2.2D-07  0.00006  0.00001  0.00175  0.00595 101116.1
         Total DFT energy =    -1416.907179004317
         Total DFT energy =  -1416.907179004317
@   19   -1416.90717900 -2.4D-07  0.00005  0.00001  0.00208  0.00725 105140.4
         Total DFT energy =    -1416.907179225044
         Total DFT energy =  -1416.907179225044
@   20   -1416.90717923 -2.2D-07  0.00003  0.00001  0.00138  0.00496 109154.8
         Total DFT energy =    -1416.907179383954
         Total DFT energy =  -1416.907179383954
@   21   -1416.90717938 -1.6D-07  0.00004  0.00000  0.00112  0.00403 113271.2
         Total DFT energy =    -1416.907179483412
         Total DFT energy =  -1416.907179483412
@   22   -1416.90717948 -9.9D-08  0.00004  0.00000  0.00139  0.00405 117319.2
         Total DFT energy =    -1416.907179572446
         Total DFT energy =  -1416.907179572446
@   23   -1416.90717957 -8.9D-08  0.00002  0.00000  0.00109  0.00266 121356.1
         Total DFT energy =    -1416.907179625806
         Total DFT energy =  -1416.907179625806
@   24   -1416.90717963 -5.3D-08  0.00001  0.00000  0.00037  0.00132 125454.4
         Total DFT energy =    -1416.907179667536
         Total DFT energy =  -1416.907179667536
@   25   -1416.90717967 -4.2D-08  0.00002  0.00000  0.00026  0.00094 129584.8
         Total DFT energy =    -1416.907179713391
         Total DFT energy =  -1416.907179713391
@   26   -1416.90717971 -4.6D-08  0.00002  0.00000  0.00044  0.00123 133730.5
         Total DFT energy =    -1416.907179754061
         Total DFT energy =  -1416.907179754061
@   27   -1416.90717975 -4.1D-08  0.00002  0.00000  0.00064  0.00160 137879.9
         Total DFT energy =    -1416.907179754843
         Total DFT energy =  -1416.907179754843
@   28   -1416.90717975 -7.8D-10  0.00001  0.00000  0.00080  0.00263 141929.1
         Total DFT energy =    -1416.907179785787
         Total DFT energy =  -1416.907179785787
@   29   -1416.90717979 -3.1D-08  0.00001  0.00000  0.00028  0.00089 146028.4
         Total DFT energy =    -1416.907179800719
         Total DFT energy =  -1416.907179800719
@   30   -1416.90717980 -1.5D-08  0.00001  0.00000  0.00018  0.00046 150134.6
         Total DFT energy =    -1416.907179805192
         Total DFT energy =  -1416.907179805192
@   31   -1416.90717981 -4.5D-09  0.00000  0.00000  0.00012  0.00040 154251.4
         Total DFT energy =    -1416.907179807603
         Total DFT energy =  -1416.907179807603
@   32   -1416.90717981 -2.4D-09  0.00000  0.00000  0.00006  0.00023 158287.6
         Total DFT energy =    -1416.907179812023
         Total DFT energy =  -1416.907179812023
@   33   -1416.90717981 -4.4D-09  0.00000  0.00000  0.00006  0.00022 162379.4
         Total DFT energy =    -1416.907179812134
         Total DFT energy =  -1416.907179812134
@   34   -1416.90717981 -1.1D-10  0.00000  0.00000  0.00007  0.00027 166476.8
         Total DFT energy =    -1416.907179817037
         Total DFT energy =  -1416.907179817037
@   35   -1416.90717982 -4.9D-09  0.00000  0.00000  0.00004  0.00013 170529.3
         Total DFT energy =    -1416.907179817698
         Total DFT energy =  -1416.907179817698
@   36   -1416.90717982 -6.6D-10  0.00000  0.00000  0.00003  0.00008 174603.5
         Total DFT energy =    -1416.907179819556
         Total DFT energy =  -1416.907179819556
@   37   -1416.90717982 -1.9D-09  0.00000  0.00000  0.00002  0.00007 178727.6
         Total DFT energy =    -1416.907179820323
         Total DFT energy =  -1416.907179820323
@   38   -1416.90717982 -7.7D-10  0.00000  0.00000  0.00002  0.00005 182819.9
@   38   -1416.90717982 -7.7D-10  0.00000  0.00000  0.00002  0.00005 182819.9

 Output coordinates in angstroms (scale by  1.889725989 to convert to a.u.)

  No.       Tag          Charge          X              Y              Z
 ---- ---------------- ---------- -------------- -------------- --------------
    1 S                   16.0000     1.27896232    -0.04881006     0.60393057
    2 P                   15.0000    -0.11646956     1.01019138    -0.64985587
    3 O                    8.0000     0.67850077     2.35079034    -1.16240716
    4 O                    8.0000    -1.00161633     1.83135625     0.47377763
    5 C                    6.0000     0.50614492     3.48575226    -0.26789001
    6 C                    6.0000    -0.92622342     3.26917062     0.29017761
    7 C                    6.0000     1.58020775     3.42840593     0.80535909
    8 C                    6.0000     0.66059245     4.73809080    -1.10410553
    9 C                    6.0000    -2.01504270     3.66843983    -0.69371500
   10 C                    6.0000    -1.16695828     3.91180630     1.63967497
   11 H                    1.0000     1.56467507     4.33548615     1.41029111
   12 H                    1.0000     1.45255026     2.57479120     1.47133050
   13 H                    1.0000     2.55680898     3.35332926     0.32694304
   14 H                    1.0000     0.01602948     4.71480064    -1.98093385
   15 H                    1.0000     0.41208515     5.61833599    -0.50845079
   16 H                    1.0000     1.69536839     4.83481692    -1.43455352
   17 H                    1.0000    -2.07657866     4.75256846    -0.79163203
   18 H                    1.0000    -1.83813597     3.24071560    -1.68180835
   19 H                    1.0000    -2.97342032     3.30331593    -0.32375034
   20 H                    1.0000    -1.02470885     4.99189472     1.56875814
   21 H                    1.0000    -2.19311506     3.72465979     1.95738774
   22 H                    1.0000    -0.49135300     3.51834704     2.39694651
   23 C                    6.0000     1.03122149    -1.70485679    -0.12866083
   24 C                    6.0000    -0.13967175    -2.44116339     0.49752422
   25 N                    7.0000    -0.26799656    -3.79163452    -0.02452952
   26 C                    6.0000     0.77656203    -4.68766079     0.48839869
   27 C                    6.0000     1.59640685    -5.35678285    -0.60198108
   28 C                    6.0000    -1.88804075    -5.59523062    -0.58336306
   29 C                    6.0000    -1.61229256    -4.31788137     0.18706664
   30 H                    1.0000     0.89016560    -1.59561698    -1.20473703
   31 H                    1.0000     1.97394555    -2.22877375     0.03016357
   32 H                    1.0000    -1.05473205    -1.89205096     0.26280021
   33 H                    1.0000    -0.03487855    -2.42634437     1.59505255
   34 H                    1.0000    -1.80189778    -4.49165261     1.26087709
   35 H                    1.0000    -2.31907472    -3.55007418    -0.13553853
   36 H                    1.0000    -1.74874759    -5.44354193    -1.65563847
   37 H                    1.0000    -2.91857773    -5.91325369    -0.41425800
   38 H                    1.0000    -1.23633745    -6.41184441    -0.26804565
   39 H                    1.0000     0.32192799    -5.45128929     1.13093059
   40 H                    1.0000     1.44725737    -4.11760674     1.13800760
   41 H                    1.0000     0.96678318    -5.96245887    -1.25555132
   42 H                    1.0000     2.35745551    -6.00726060    -0.16390466
   43 H                    1.0000     2.09978108    -4.60969175    -1.21885307

 Total times  cpu:   182734.6s     wall:   182820.2s
