============================== echo of input deck ==============================
echo

start molecule

print low

title "Bi@Quartz ecp"
charge 0

geometry units angstroms print xyz autosym
  load format xyz Bi_Qgeom.xyz
end

basis
 * library lanl2dz_ecp
end

ecp
  Si library lanl2dz_ecp
  Bi library lanl2dz_ecp
end

dft
  rodft
  mult 4
  xc b3lyp
  maxiter 100
end

driver
  maxiter 999
  xyz BiQgeo
end

task dft optimize

#task dft frequencies

================================================================================

         Total DFT energy =    -6011.273138914410
@ Step       Energy      Delta E   Gmax     Grms     Xrms     Xmax   Walltime
@ ---- ---------------- -------- -------- -------- -------- -------- --------
@    0   -6011.27313891  0.0D+00  0.00177  0.00020  0.00000  0.00000    132.6
         Total DFT energy =    -6011.271870669649
         Total DFT energy =    -6011.273240177282
@    1   -6011.27324018 -1.0D-04  0.00412  0.00043  0.00851  0.07911    405.8
         Total DFT energy =    -6011.270355587525
         Total DFT energy =    -6011.273327077810
@    2   -6011.27332708 -8.7D-05  0.00292  0.00041  0.00804  0.09826    571.5
         Total DFT energy =    -6011.269367528547
         Total DFT energy =    -6011.273269085426
@    3   -6011.27326909  5.8D-05  0.00157  0.00028  0.00701  0.08216    794.1
         Total DFT energy =    -6011.273361735137
         Total DFT energy =    -6011.273416722510
@    4   -6011.27341672 -1.5D-04  0.00387  0.00050  0.01340  0.16198    958.2
         Total DFT energy =    -6011.273005729156
         Total DFT energy =    -6011.273565366348
@    5   -6011.27356537 -1.5D-04  0.00233  0.00046  0.01115  0.13704   1135.4
         Total DFT energy =    -6011.271681955554
         Total DFT energy =    -6011.273690847011
@    6   -6011.27369085 -1.3D-04  0.00176  0.00035  0.01042  0.07950   1316.5
         Total DFT energy =    -6011.268120077839
         Total DFT energy =    -6011.273736991006
@    7   -6011.27373699 -4.6D-05  0.00198  0.00028  0.00444  0.03752   1482.8
         Total DFT energy =    -6011.272839159362
         Total DFT energy =    -6011.273841326163
@    8   -6011.27384133 -1.0D-04  0.00256  0.00031  0.00930  0.10357   1622.1
         Total DFT energy =    -6011.273188440270
         Total DFT energy =    -6011.273929533942
@    9   -6011.27392953 -8.8D-05  0.00137  0.00028  0.01089  0.12432   1798.7
         Total DFT energy =    -6011.273264494892
         Total DFT energy =    -6011.274171752440
@   10   -6011.27417175 -2.4D-04  0.00222  0.00033  0.00859  0.09866   1971.8
         Total DFT energy =    -6011.273425924312
         Total DFT energy =    -6011.274232034016
@   11   -6011.27423203 -6.0D-05  0.00207  0.00031  0.00728  0.07357   2159.3
         Total DFT energy =    -6011.272824593326
         Total DFT energy =    -6011.274231109110
@   12   -6011.27423111  9.2D-07  0.00226  0.00030  0.00592  0.04810   2296.3
         Total DFT energy =    -6011.273635714037
         Total DFT energy =    -6011.274336217497
@   13   -6011.27433622 -1.1D-04  0.00200  0.00026  0.00706  0.06977   2477.9
         Total DFT energy =    -6011.274029142351
         Total DFT energy =    -6011.274403196061
@   14   -6011.27440320 -6.7D-05  0.00146  0.00021  0.00913  0.12404   2611.2
         Total DFT energy =    -6011.274204566733
         Total DFT energy =    -6011.274454195972
@   15   -6011.27445420 -5.1D-05  0.00119  0.00020  0.00926  0.13490   2763.5
         Total DFT energy =    -6011.274201587325
         Total DFT energy =    -6011.274498339705
@   16   -6011.27449834 -4.4D-05  0.00068  0.00016  0.00840  0.08996   2959.0
         Total DFT energy =    -6011.274461271400
         Total DFT energy =    -6011.274547236095
@   17   -6011.27454724 -4.9D-05  0.00077  0.00017  0.00969  0.15044   3137.8
         Total DFT energy =    -6011.274444825728
         Total DFT energy =    -6011.274583735832
@   18   -6011.27458374 -3.6D-05  0.00070  0.00013  0.00813  0.10970   3270.0
         Total DFT energy =    -6011.274493879874
         Total DFT energy =    -6011.274610048979
@   19   -6011.27461005 -2.6D-05  0.00102  0.00015  0.00769  0.10225   3409.9
         Total DFT energy =    -6011.274559816296
         Total DFT energy =    -6011.274634487994
@   20   -6011.27463449 -2.4D-05  0.00086  0.00014  0.00891  0.12999   3539.1
         Total DFT energy =    -6011.274643729399
         Total DFT energy =    -6011.274665506053
@   21   -6011.27466551 -3.1D-05  0.00087  0.00013  0.01214  0.19976   3688.8
         Total DFT energy =    -6011.274654666929
         Total DFT energy =    -6011.274684587655
@   22   -6011.27468459 -1.9D-05  0.00047  0.00011  0.00948  0.14872   3836.6
         Total DFT energy =    -6011.274677392019
         Total DFT energy =    -6011.274693157914
@   23   -6011.27469316 -8.6D-06  0.00067  0.00010  0.01012  0.14809   3964.0
         Total DFT energy =    -6011.274715380994
         Total DFT energy =    -6011.274734554036
@   24   -6011.27473455 -4.1D-05  0.00088  0.00015  0.01663  0.27442   4173.6
         Total DFT energy =    -6011.274617646563
         Total DFT energy =    -6011.274746297277
@   25   -6011.27474630 -1.2D-05  0.00077  0.00012  0.00509  0.08690   4306.0
         Total DFT energy =    -6011.274506675652
         Total DFT energy =    -6011.274752606920
@   26   -6011.27475261 -6.3D-06  0.00077  0.00010  0.00388  0.06509   4455.9
         Total DFT energy =    -6011.274635827336
         Total DFT energy =    -6011.274756606322
@   27   -6011.27475661 -4.0D-06  0.00053  0.00007  0.00277  0.04739   4623.3
         Total DFT energy =    -6011.274620510419
         Total DFT energy =    -6011.274658940588
@   28   -6011.27465894  9.8D-05  0.00052  0.00006  0.00300  0.05506   4772.7
         Total DFT energy =    -6011.274659283679
         Total DFT energy =  -6011.274659283679
@   29   -6011.27465928 -3.4D-07  0.00024  0.00005  0.00657  0.12045   4855.8
         Total DFT energy =    -6011.274650326058
         Total DFT energy =    -6011.274660736162
@   30   -6011.27466074 -1.5D-06  0.00031  0.00004  0.00301  0.05506   5073.9
         Total DFT energy =    -6011.274654734709
         Total DFT energy =    -6011.274660391076
@   31   -6011.27466039  3.5D-07  0.00038  0.00004  0.00141  0.02354   5222.5
         Total DFT energy =    -6011.274622563724
         Total DFT energy =    -6011.274660408924
@   32   -6011.27466041 -1.8D-08  0.00038  0.00004  0.00091  0.01685   5408.3
         Total DFT energy =    -6011.274882800501
         Total DFT energy =    -6011.274890704615
@   49   -6011.27489070 -3.9D-05  0.00053  0.00011  0.01807  0.33601   7637.7
         Total DFT energy =    -6011.274906348087
         Total DFT energy =    -6011.274908443202
@   50   -6011.27490844 -1.8D-05  0.00072  0.00014  0.02312  0.47014   7769.1
         Total DFT energy =    -6011.274823755270
         Total DFT energy =    -6011.274963235449
@   51   -6011.27496324 -5.5D-05  0.00088  0.00018  0.02780  0.53361   7912.7
         Total DFT energy =    -6011.274858762161
         Total DFT energy =    -6011.274965375223
@   52   -6011.27496538 -2.1D-06  0.00110  0.00019  0.00677  0.13785   8041.4
         Total DFT energy =    -6011.274950970834
         Total DFT energy =    -6011.275011406640
@   53   -6011.27501141 -4.6D-05  0.00117  0.00020  0.03584  0.56079   8185.9
         Total DFT energy =    -6011.275056572495
         Total DFT energy =  -6011.275056572495
@   54   -6011.27505657 -4.5D-05  0.00120  0.00018  0.01698  0.25507   8284.3
         Total DFT energy =    -6011.275064430312
         Total DFT energy =    -6011.275120216102
@   55   -6011.27512022 -6.4D-05  0.00063  0.00012  0.02215  0.39499   8432.0
         Total DFT energy =    -6011.275191847092
         Total DFT energy =    -6011.275064171096
@   56   -6011.27506417  5.6D-05  0.00145  0.00027  0.03707  0.60663   8563.8
         Total DFT energy =    -6011.275150167666
         Total DFT energy =    -6011.275181062737
@   57   -6011.27518106 -1.2D-04  0.00054  0.00010  0.01592  0.24869   8699.3
         Total DFT energy =    -6011.275193179059
         Total DFT energy =    -6011.275196277465
@   58   -6011.27519628 -1.5D-05  0.00052  0.00006  0.00559  0.09539   8806.7
         Total DFT energy =    -6011.275208163742
         Total DFT energy =    -6011.275176008591
@   59   -6011.27517601  2.0D-05  0.00037  0.00007  0.01100  0.20684   8940.6
         Total DFT energy =    -6011.275223153461
         Total DFT energy =    -6011.275232788588
@   60   -6011.27523279 -5.7D-05  0.00050  0.00007  0.01568  0.23502   9054.8
         Total DFT energy =    -6011.275281861419
         Total DFT energy =    -6011.275235005333
@   61   -6011.27523501 -2.2D-06  0.00065  0.00007  0.02738  0.47647   9193.3
         Total DFT energy =    -6011.275248851898
         Total DFT energy =    -6011.275248705433
@   62   -6011.27524871 -1.4D-05  0.00022  0.00004  0.01339  0.19638   9344.2
         Total DFT energy =    -6011.275165537502
         Total DFT energy =    -6011.275249776771
@   63   -6011.27524978 -1.1D-06  0.00022  0.00003  0.00153  0.02499   9447.3
         Total DFT energy =    -6011.275156130863
         Total DFT energy =    -6011.275252845977
@   64   -6011.27525285 -3.1D-06  0.00039  0.00003  0.00279  0.04382   9586.3
         Total DFT energy =    -6011.273758113120
         Total DFT energy =    -6011.275256693839
@   65   -6011.27525669 -3.8D-06  0.00069  0.00005  0.00355  0.06952   9732.2
         Total DFT energy =    -6011.273470113641
         Total DFT energy =    -6011.275087769282
@   66   -6011.27508777  1.7D-04  0.00043  0.00004  0.00222  0.03535   9901.6
         Total DFT energy =    -6011.275162313624
         Total DFT energy =    -6011.275153787428
@   67   -6011.27515379 -6.6D-05  0.00107  0.00009  0.01553  0.24273  10019.1
         Total DFT energy =    -6011.275196157166
         Total DFT energy =    -6011.275267279448
@   68   -6011.27526728 -1.1D-04  0.00052  0.00011  0.02877  0.43487  10163.6
         Total DFT energy =    -6011.275199559102
         Total DFT energy =    -6011.275275572018
@   69   -6011.27527557 -8.3D-06  0.00049  0.00010  0.00327  0.04931  10316.2
         Total DFT energy =    -6011.275194198465
         Total DFT energy =    -6011.275283685687
@   70   -6011.27528369 -8.1D-06  0.00044  0.00008  0.00182  0.02938  10480.3
         Total DFT energy =    -6011.275119002321
         Total DFT energy =    -6011.275287380757
@   71   -6011.27528738 -3.7D-06  0.00036  0.00007  0.00376  0.07103  10600.5
         Total DFT energy =    -6011.275198623523
         Total DFT energy =    -6011.275289945654
@   72   -6011.27528995 -2.6D-06  0.00031  0.00005  0.00196  0.03306  10740.8
         Total DFT energy =    -6011.275202439351
         Total DFT energy =    -6011.275292363559
@   73   -6011.27529236 -2.4D-06  0.00023  0.00005  0.00134  0.02214  10887.7
         Total DFT energy =    -6011.275149749130
         Total DFT energy =    -6011.275294575567
@   74   -6011.27529458 -2.2D-06  0.00021  0.00004  0.00165  0.02860  11035.0
         Total DFT energy =    -6011.275296496328
         Total DFT energy =  -6011.275296496328
@   75   -6011.27529650 -1.9D-06  0.00019  0.00004  0.00423  0.06773  11115.6
         Total DFT energy =    -6011.275204981787
         Total DFT energy =    -6011.275296407261
@   76   -6011.27529641  8.9D-08  0.00017  0.00004  0.00021  0.00307  11272.7
         Total DFT energy =    -6011.275205008539
         Total DFT energy =    -6011.275296620213
@   77   -6011.27529662 -2.1D-07  0.00016  0.00003  0.00022  0.00321  11374.5
         Total DFT energy =    -6011.275204511432
         Total DFT energy =    -6011.275296774538
@   78   -6011.27529677 -1.5D-07  0.00015  0.00003  0.00018  0.00271  11513.1
         Total DFT energy =    -6011.275204514510
         Total DFT energy =    -6011.275296861688
@   79   -6011.27529686 -8.7D-08  0.00015  0.00003  0.00015  0.00230  11629.5
         Total DFT energy =    -6011.275204396127
         Total DFT energy =    -6011.275297362444
@   80   -6011.27529736 -5.0D-07  0.00015  0.00003  0.00012  0.00189  11761.9
         Total DFT energy =    -6011.275204329074
         Total DFT energy =    -6011.275297472992
@   81   -6011.27529747 -1.1D-07  0.00014  0.00003  0.00011  0.00165  11867.4
@   81   -6011.27529747 -1.1D-07  0.00014  0.00003  0.00011  0.00165  11867.4

 Output coordinates in angstroms (scale by  1.889725989 to convert to a.u.)

  No.       Tag          Charge          X              Y              Z
 ---- ---------------- ---------- -------------- -------------- --------------
    1 O                    8.0000     4.05896474    -1.55685580    -4.06686051
    2 H                    1.0000    -1.96578433     5.21048714    -0.04370125
    3 H                    1.0000     4.93295434    -7.36298310     0.25460691
    4 Si                  14.0000    -1.75531239     8.12681173     3.12456922
    5 Si                  14.0000     0.34466190     7.01035522    -0.56715127
    6 Si                  14.0000     2.90769599     4.76645569    -4.49730261
    7 H                    1.0000     1.30176648    -6.05194956    -1.10165750
    8 Si                  14.0000    -3.40446062     4.39564527     1.63162803
    9 Si                  14.0000     0.17373268     2.35726036    -1.05793862
   10 Si                  14.0000     3.61779184    -0.39421971    -2.96656419
   11 H                    1.0000    -2.42888176    -3.41169609    -2.85957411
   12 Si                  14.0000    -4.53909684     0.28265528    -1.07732179
   13 Si                  14.0000    -0.67531056    -2.46182282    -1.06014620
   14 Si                  14.0000     3.62385262    -4.63415984    -0.34372849
   15 H                    1.0000    -1.78961428     7.16103166     0.61497648
   16 Si                  14.0000    -4.38452218    -4.76386265    -3.06088844
   17 Si                  14.0000    -0.85963523    -7.12858383    -0.83636031
   18 Si                  14.0000     3.49717429    -8.20084778     1.93167642
   19 O                    8.0000    -2.97928477     0.28929146    -1.72046515
   20 O                    8.0000     2.67809906     4.67474275     4.68858374
   21 O                    8.0000     6.19473803     4.42595482     0.35584142
   22 O                    8.0000    -1.64696755    -6.61609634    -2.19974912
   23 O                    8.0000     0.80853253    -2.62097493    -1.86210283
   24 O                    8.0000    -1.07281883     1.48350271     4.54552803
   25 O                    8.0000     3.43131367     0.86833173     2.84624473
   26 O                    8.0000     2.07597118    -8.25268227     1.08784910
   27 O                    8.0000     4.55265056    -5.96239735    -0.80814004
   28 O                    8.0000    -4.15303025    -2.26501746     2.94068839
   29 O                    8.0000     0.32443522    -2.61435843     4.06478236
   30 H                    1.0000    -2.40281656     1.10816974    -1.65800676
   31 H                    1.0000    -5.22335022    -5.01006091    -5.26947542
   32 O                    8.0000     2.25144137    -4.63756615    -1.27568325
   33 O                    8.0000     0.91776803     2.13105812    -2.54650433
   34 O                    8.0000    -2.26444445     4.68044785     5.63689769
   35 O                    8.0000    -5.10800600    -1.23938524    -1.24077332
   36 Si                  14.0000    -4.51076091    -3.55137661     1.97046458
   37 Si                  14.0000     0.17907578    -4.25360269     3.67786599
   38 O                    8.0000     1.73915000     4.34373875     2.16337521
   39 O                    8.0000     5.02601652     2.97346326    -1.62206398
   40 H                    1.0000     4.70990432    -6.21834269    -1.73199363
   41 H                    1.0000    -3.48617403     7.16389101     1.71850303
   42 Si                  14.0000    -1.54439090     5.13953660     4.22270363
   43 O                    8.0000    -5.14455174    -3.83264909    -1.93454714
   44 O                    8.0000    -1.48287253    -6.28506927     0.47650671
   45 O                    8.0000    -2.74855366    -4.34650633    -3.02412452
   46 Si                  14.0000     1.92476864     4.55038198     0.56078587
   47 O                    8.0000    -0.67187620    -4.43959980     2.30579982
   48 H                    1.0000    -1.84252030    -5.69783010    -2.55469889
   49 H                    1.0000     5.08400196    -4.45675795     4.05580890
   50 Si                  14.0000     4.94405662     2.55965192    -3.20929322
   51 O                    8.0000    -3.11533402    -4.24686718     1.39586729
   52 O                    8.0000     0.81003496    -6.86817095    -0.80153757
   53 O                    8.0000     1.53477694     6.09612275     0.10441944
   54 O                    8.0000     3.29932389    -4.84375972     1.24654143
   55 O                    8.0000    -5.92906546     1.15687547     2.75767050
   56 O                    8.0000     4.83205422    -8.06518648     0.93937323
   57 O                    8.0000     4.01348601     3.64606828    -4.01956028
   58 H                    1.0000    -2.74978191     9.42072170     4.88182718
   59 O                    8.0000    -0.73003226     0.42831562     2.12476859
   60 H                    1.0000     3.60997659    -1.86047740    -4.86746803
   61 H                    1.0000    -2.33895642    -1.10945851    -2.09093096
   62 O                    8.0000    -4.41739588    -6.40141933    -2.79366230
   63 O                    8.0000     4.23387215    -1.10936879     1.15849127
   64 H                    1.0000    -5.37994161    -5.02743663     3.64068824
   65 O                    8.0000    -4.27187024     3.02912958     1.75496243
   66 O                    8.0000    -1.11846257    -8.75151037    -0.67306077
   67 H                    1.0000    -0.44553178    -5.15011035     5.82155312
   68 O                    8.0000     3.64986610    -9.50082244     2.94008790
   69 H                    1.0000     6.86127252     2.30033406    -4.63904579
   70 H                    1.0000     7.25976366    -1.72118771    -0.62924111
   71 H                    1.0000    -8.09975210    -3.20860156    -0.98400295
   72 H                    1.0000     2.87523283     5.58718675     4.93745217
   73 H                    1.0000     6.64614612     5.13954220    -0.11346389
   74 O                    8.0000    -2.38962663     4.62702298     2.89344250
   75 O                    8.0000     0.84878853     3.66633659    -0.31732328
   76 H                    1.0000    -0.12026169     1.77969883     4.48921355
   77 H                    1.0000     4.00543581     1.47821221     2.30067611
   78 O                    8.0000     4.21102128    -4.21787052     3.70602080
   79 O                    8.0000     1.70495964    -4.80588109     3.42170454
   80 O                    8.0000    -5.15019728    -4.42298038    -4.50334748
   81 O                    8.0000    -1.18616859     6.63715200    -0.06048395
   82 H                    1.0000    -5.37706122     5.73805127     1.47831586
   83 O                    8.0000     4.22560963     1.08701529    -3.35304920
   84 O                    8.0000     1.46273729     2.35675762     3.99878859
   85 O                    8.0000     4.98954053     2.11881515     0.99765862
   86 O                    8.0000     1.59901281     4.56512047    -3.46667413
   87 H                    1.0000    -3.33105296    -1.90035568     3.37362998
   88 O                    8.0000    -1.91701760    -1.15697885     3.93807994
   89 O                    8.0000     2.97608325    -1.80670030     3.52167177
   90 H                    1.0000     1.16574176     2.95994470    -3.05957458
   91 O                    8.0000    -0.00552962     4.58190128     4.13232548
   92 O                    8.0000    -5.46880572    -4.66556620     2.74865560
   93 O                    8.0000    -0.63432185    -5.04392969     4.88021965
   94 O                    8.0000    -4.41501064     5.76317244     1.60878802
   95 O                    8.0000     3.46445003     4.14147738     0.17954966
   96 H                    1.0000     1.21491704    -2.17443237     3.99471229
   97 O                    8.0000    -5.34744659    -3.08614950     0.63756857
   98 O                    8.0000    -1.48227615     2.50050868    -1.19185217
   99 H                    1.0000     1.19012819    -1.83353783    -2.35544283
  100 H                    1.0000    -2.28344958     3.77731760     5.99578159
  101 O                    8.0000     6.49866042     2.55258836    -3.77987516
  102 H                    1.0000     1.65730012    -7.74974562     0.33126722
  103 O                    8.0000    -4.42641507     0.72430944     0.50266283
  104 O                    8.0000    -5.50524408     1.39172581    -1.85260453
  105 H                    1.0000    -6.25316706     0.32910744     3.14546297
  106 Si                  14.0000    -5.76138554    -2.71720953    -0.90438628
  107 O                    8.0000    -0.48784357    -1.32649052     0.10625785
  108 O                    8.0000     0.54030275     1.04937750    -0.15471699
  109 O                    8.0000    -3.21495047     0.92234907     2.92567871
  110 Si                  14.0000    -1.61527026    -4.73599009     0.99793904
  111 H                    1.0000     1.16142893     5.31726765    -2.97123648
  112 H                    1.0000     3.55596105    -2.59134419     3.73404759
  113 H                    1.0000     2.20818623     1.74622069     3.72507828
  114 Si                  14.0000     3.16449535    -5.23815355     2.84524518
  115 O                    8.0000    -1.02191477    -3.86601914    -0.29928750
  116 O                    8.0000    -2.64015320     9.26243126     3.93466993
  117 O                    8.0000     1.94370175    -0.32755001    -2.87859812
  118 H                    1.0000     1.68731371    -3.83815839    -1.58252709
  119 O                    8.0000     4.48026959    -3.23235430    -0.47609745
  120 H                    1.0000    -6.21301383     1.24157820    -2.49455752
  121 H                    1.0000    -0.11818526     7.11264877    -2.89373145
  122 Si                  14.0000    -4.48284579     1.39949831     1.99706151
  123 H                    1.0000    -2.01272911     3.21500243    -0.68946102
  124 H                    1.0000     2.09707373     3.83910352    -6.59154923
  125 O                    8.0000    -0.31429665     8.67416157     2.54447284
  126 Si                  14.0000     0.23047613    -0.13018917     0.94204629
  127 O                    8.0000     1.64076278    -0.64577612     1.58380545
  128 O                    8.0000    -2.59819594     7.62882752     1.73288386
  129 O                    8.0000     0.58408969     8.62115020    -0.14344128
  130 Si                  14.0000     4.88837744    -1.65426361    -0.24691956
  131 H                    1.0000     1.45943037     0.55658668    -2.81775316
  132 O                    8.0000    -7.40353718    -2.54431833    -1.08082569
  133 O                    8.0000    -2.50616498     4.39202968     0.20679469
  134 O                    8.0000     0.45113631     6.68374589    -2.23113407
  135 O                    8.0000     6.51963521    -1.39422275    -0.10000107
  136 O                    8.0000    -1.54942880     6.78929241     4.08221730
  137 O                    8.0000     3.46385266     6.32198933    -4.33994919
  138 O                    8.0000     2.51930805     4.55767008    -6.09779275
  139 Si                  14.0000     1.48125210     4.00626800     3.76390198
  140 Si                  14.0000    -1.73962755     0.43521017     3.44197745
  141 H                    1.0000     0.00810540     8.88283396     1.64214227
  142 H                    1.0000     1.35548126     9.17452457    -0.34709641
  143 Si                  14.0000     4.92967751     3.44480016    -0.05199643
  144 Si                  14.0000     3.11502771    -0.69004814     2.29607704
  145 H                    1.0000     3.86446102     6.89360327    -5.00944257
  146 O                    8.0000     3.49605271    -6.83492030     2.93930336
  147 O                    8.0000    -1.86354369    -2.01331453    -2.13227438
  148 H                    1.0000     5.73025590     1.48390854     0.99273617
  149 O                    8.0000     4.27709849    -0.82897036    -1.52846111
  150 H                    1.0000    -1.11483625    -1.73028062     4.13541173
  151 H                    1.0000     3.59200719   -10.44174445     2.73231558
  152 H                    1.0000    -0.70785219    -9.36246808    -0.04429592
  153 H                    1.0000    -3.63759390    -6.92408338    -2.50476989
  154 Bi                  83.0000     0.32384708     1.58434593    -8.19880622

 Total times  cpu:    10963.9s     wall:    11868.1s
