============================== echo of input deck ==============================
echo

start molecule

# https://nwchemgit.github.io/Memory.html
memory total 40 gb

print low

title "H3PO4"
charge 0

geometry units angstroms print xyz autosym
  load format xyz h3po4_startgeom.xyz
end

basis
  * library 6-311++G(2d,2p)
end

dft
  grid fine
 # grid huge
  xc b3lyp
  mult 1
# Reduce output during geometry optimization
  noprint "final vectors analysis"
  print low
end

driver
#  clear
  tight
#  linopt 0
  maxiter 9999
  xyz h3po4_geom_b3lyp
  print low
end

cosmo
  solvent chcl3
end

task dft optimize

================================================================================

         Total DFT energy =     -644.338613228531
@ Step       Energy      Delta E   Gmax     Grms     Xrms     Xmax   Walltime
@ ---- ---------------- -------- -------- -------- -------- -------- --------
@    0    -644.33861323  0.0D+00  0.00446  0.00178  0.00000  0.00000     15.8
         Total DFT energy =     -644.338984171800
         Total DFT energy =     -644.339058044128
@    1    -644.33905804 -4.4D-04  0.00135  0.00085  0.01212  0.02694     41.4
         Total DFT energy =     -644.339369268029
         Total DFT energy =     -644.339293306274
@    2    -644.33929331 -2.4D-04  0.00284  0.00128  0.01312  0.03013     66.5
         Total DFT energy =     -644.339574342318
         Total DFT energy =     -644.339489664269
@    3    -644.33948966 -2.0D-04  0.00326  0.00134  0.01236  0.02878     92.0
         Total DFT energy =     -644.339814544044
         Total DFT energy =     -644.339732894419
@    4    -644.33973289 -2.4D-04  0.00245  0.00104  0.01343  0.03072    117.3
         Total DFT energy =     -644.340123688827
         Total DFT energy =     -644.340082789947
@    5    -644.34008279 -3.5D-04  0.00113  0.00064  0.01619  0.03533    142.2
         Total DFT energy =     -644.340508469677
         Total DFT energy =     -644.340574697616
@    6    -644.34057470 -4.9D-04  0.00066  0.00040  0.02086  0.04426    167.4
         Total DFT energy =     -644.340986107663
         Total DFT energy =     -644.341308872790
@    7    -644.34130887 -7.3D-04  0.00041  0.00025  0.03372  0.06997    192.6
         Total DFT energy =     -644.341625335558
         Total DFT energy =     -644.341875011424
@    8    -644.34187501 -5.7D-04  0.00039  0.00021  0.03719  0.07370    218.2
         Total DFT energy =     -644.341928949866
         Total DFT energy =     -644.341973991739
@    9    -644.34197399 -9.9D-05  0.00093  0.00033  0.00630  0.01294    243.6
         Total DFT energy =     -644.341938824542
         Total DFT energy =     -644.341971048237
@   10    -644.34197105  2.9D-06  0.00084  0.00030  0.00020  0.00039    268.7
         Total DFT energy =     -644.341932987076
         Total DFT energy =     -644.341968374914
@   11    -644.34196837  2.7D-06  0.00078  0.00028  0.00018  0.00035    294.3
         Total DFT energy =     -644.341933791291
         Total DFT energy =     -644.341966077969
@   12    -644.34196608  2.3D-06  0.00072  0.00026  0.00015  0.00029    319.5
         Total DFT energy =     -644.341936802850
         Total DFT energy =     -644.341964244680
@   13    -644.34196424  1.8D-06  0.00068  0.00024  0.00012  0.00023    344.5
         Total DFT energy =     -644.341936559079
         Total DFT energy =     -644.341962605044
@   14    -644.34196261  1.6D-06  0.00064  0.00023  0.00010  0.00020    369.6
         Total DFT energy =     -644.341936389816
         Total DFT energy =     -644.341961129653
@   15    -644.34196113  1.5D-06  0.00061  0.00022  0.00009  0.00018    394.6
         Total DFT energy =     -644.341933330551
         Total DFT energy =     -644.341959656042
@   16    -644.34195966  1.5D-06  0.00057  0.00021  0.00009  0.00018    420.1
         Total DFT energy =     -644.341933331113
         Total DFT energy =     -644.341958330311
@   17    -644.34195833  1.3D-06  0.00054  0.00019  0.00008  0.00016    445.7
         Total DFT energy =     -644.341933331523
         Total DFT energy =     -644.341957130909
@   18    -644.34195713  1.2D-06  0.00051  0.00018  0.00007  0.00014    470.9
         Total DFT energy =     -644.341933329473
         Total DFT energy =     -644.341956040809
@   19    -644.34195604  1.1D-06  0.00049  0.00018  0.00007  0.00013    496.0
         Total DFT energy =     -644.341933330201
         Total DFT energy =     -644.341955045926
@   20    -644.34195505  9.9D-07  0.00047  0.00017  0.00006  0.00012    521.3
         Total DFT energy =     -644.341933330557
         Total DFT energy =     -644.341954133599
@   21    -644.34195413  9.1D-07  0.00045  0.00016  0.00005  0.00011    546.7
         Total DFT energy =     -644.341933332807
         Total DFT energy =     -644.341953295012
@   22    -644.34195330  8.4D-07  0.00043  0.00015  0.00005  0.00010    571.8
         Total DFT energy =     -644.341933334259
         Total DFT energy =     -644.341952521489
@   23    -644.34195252  7.7D-07  0.00041  0.00015  0.00005  0.00009    597.0
         Total DFT energy =     -644.341933335029
         Total DFT energy =     -644.341951805435
@   24    -644.34195181  7.2D-07  0.00039  0.00014  0.00004  0.00008    621.7
         Total DFT energy =     -644.341933335809
         Total DFT energy =     -644.341951140944
@   25    -644.34195114  6.6D-07  0.00038  0.00014  0.00004  0.00008    646.9
         Total DFT energy =     -644.341933337436
         Total DFT energy =     -644.341950522189
@   26    -644.34195052  6.2D-07  0.00037  0.00013  0.00004  0.00007    672.1
         Total DFT energy =     -644.341933338046
         Total DFT energy =     -644.341949945246
@   27    -644.34194995  5.8D-07  0.00035  0.00013  0.00003  0.00007    697.3
         Total DFT energy =     -644.341933338039
         Total DFT energy =     -644.341949405577
@   28    -644.34194941  5.4D-07  0.00034  0.00012  0.00003  0.00006    722.4
         Total DFT energy =     -644.341933339152
         Total DFT energy =     -644.341948899757
@   29    -644.34194890  5.1D-07  0.00033  0.00012  0.00003  0.00006    747.8
         Total DFT energy =     -644.341933339616
         Total DFT energy =     -644.341948424793
@   30    -644.34194842  4.7D-07  0.00032  0.00011  0.00003  0.00005    773.5
         Total DFT energy =     -644.341933340321
         Total DFT energy =     -644.341947977779
@   31    -644.34194798  4.5D-07  0.00031  0.00011  0.00003  0.00005    798.6
         Total DFT energy =     -644.341933340137
         Total DFT energy =     -644.341947556822
@   32    -644.34194756  4.2D-07  0.00030  0.00011  0.00002  0.00005    823.7
         Total DFT energy =     -644.341933361611
         Total DFT energy =     -644.341940528760
@   66    -644.34194053  1.1D-07  0.00015  0.00005  0.00001  0.00001   1680.6
         Total DFT energy =     -644.341933361402
         Total DFT energy =     -644.341940425886
@   67    -644.34194043  1.0D-07  0.00015  0.00005  0.00001  0.00001   1705.6
         Total DFT energy =     -644.341933361883
         Total DFT energy =     -644.341940325867
@   68    -644.34194033  1.0D-07  0.00015  0.00005  0.00001  0.00001   1731.1
         Total DFT energy =     -644.341933362140
         Total DFT energy =     -644.341940228568
@   69    -644.34194023  9.7D-08  0.00014  0.00005  0.00001  0.00001   1756.5
         Total DFT energy =     -644.341933362598
         Total DFT energy =     -644.341940134018
@   70    -644.34194013  9.5D-08  0.00014  0.00005  0.00001  0.00001   1781.5
         Total DFT energy =     -644.341933362765
         Total DFT energy =     -644.341940040843
@   71    -644.34194004  9.3D-08  0.00014  0.00005  0.00001  0.00001   1806.7
         Total DFT energy =     -644.341933363084
         Total DFT energy =     -644.341939952469
@   72    -644.34193995  8.8D-08  0.00014  0.00005  0.00001  0.00001   1832.0
         Total DFT energy =     -644.341933363445
         Total DFT energy =     -644.341939865802
@   73    -644.34193987  8.7D-08  0.00014  0.00005  0.00000  0.00001   1857.2
         Total DFT energy =     -644.341933363815
         Total DFT energy =     -644.341939780868
@   74    -644.34193978  8.5D-08  0.00013  0.00005  0.00000  0.00001   1882.1
         Total DFT energy =     -644.341933365216
         Total DFT energy =     -644.341939698090
@   75    -644.34193970  8.3D-08  0.00013  0.00005  0.00000  0.00001   1907.8
         Total DFT energy =     -644.341933365345
         Total DFT energy =     -644.341939617728
@   76    -644.34193962  8.0D-08  0.00013  0.00005  0.00000  0.00001   1932.9
         Total DFT energy =     -644.341933365895
         Total DFT energy =     -644.341939538946
@   77    -644.34193954  7.9D-08  0.00013  0.00005  0.00000  0.00001   1958.1
         Total DFT energy =     -644.341933365985
         Total DFT energy =     -644.341939462302
@   78    -644.34193946  7.7D-08  0.00013  0.00005  0.00000  0.00001   1983.2
         Total DFT energy =     -644.341933366422
         Total DFT energy =     -644.341939387595
@   79    -644.34193939  7.5D-08  0.00013  0.00005  0.00000  0.00001   2008.5
         Total DFT energy =     -644.341933366731
         Total DFT energy =     -644.341939314860
@   80    -644.34193931  7.3D-08  0.00012  0.00004  0.00000  0.00001   2033.9
         Total DFT energy =     -644.341933366826
         Total DFT energy =     -644.341939243552
@   81    -644.34193924  7.1D-08  0.00012  0.00004  0.00000  0.00001   2059.6
         Total DFT energy =     -644.341933367066
         Total DFT energy =     -644.341939174251
@   82    -644.34193917  6.9D-08  0.00012  0.00004  0.00000  0.00001   2084.4
         Total DFT energy =     -644.341933367223
         Total DFT energy =     -644.341939106238
@   83    -644.34193911  6.8D-08  0.00012  0.00004  0.00000  0.00001   2109.3
         Total DFT energy =     -644.341933367557
         Total DFT energy =     -644.341939040024
@   84    -644.34193904  6.6D-08  0.00012  0.00004  0.00000  0.00001   2134.3
         Total DFT energy =     -644.341933367855
         Total DFT energy =     -644.341938975389
@   85    -644.34193898  6.5D-08  0.00012  0.00004  0.00000  0.00001   2159.2
         Total DFT energy =     -644.341933367721
         Total DFT energy =     -644.341938911888
@   86    -644.34193891  6.4D-08  0.00012  0.00004  0.00000  0.00001   2184.0
         Total DFT energy =     -644.341933367832
         Total DFT energy =     -644.341938849947
@   87    -644.34193885  6.2D-08  0.00011  0.00004  0.00000  0.00001   2209.2
         Total DFT energy =     -644.341933366299
         Total DFT energy =     -644.341938789618
@   88    -644.34193879  6.0D-08  0.00011  0.00004  0.00000  0.00001   2234.5
         Total DFT energy =     -644.341933366833
         Total DFT energy =     -644.341938730371
@   89    -644.34193873  5.9D-08  0.00011  0.00004  0.00000  0.00001   2260.1
         Total DFT energy =     -644.341933367028
         Total DFT energy =     -644.341938672448
@   90    -644.34193867  5.8D-08  0.00011  0.00004  0.00000  0.00001   2285.0
         Total DFT energy =     -644.341933367423
         Total DFT energy =     -644.341938615698
@   91    -644.34193862  5.7D-08  0.00011  0.00004  0.00000  0.00001   2310.1
         Total DFT energy =     -644.341933367420
         Total DFT energy =     -644.341938560143
@   92    -644.34193856  5.6D-08  0.00011  0.00004  0.00000  0.00001   2335.0
         Total DFT energy =     -644.341933367537
         Total DFT energy =     -644.341938505824
@   93    -644.34193851  5.4D-08  0.00011  0.00004  0.00000  0.00001   2360.2
         Total DFT energy =     -644.341933367907
         Total DFT energy =     -644.341938452612
@   94    -644.34193845  5.3D-08  0.00011  0.00004  0.00000  0.00001   2385.4
         Total DFT energy =     -644.341933368200
         Total DFT energy =     -644.341938400562
@   95    -644.34193840  5.2D-08  0.00011  0.00004  0.00000  0.00001   2410.7
         Total DFT energy =     -644.341933368282
         Total DFT energy =     -644.341938349519
@   96    -644.34193835  5.1D-08  0.00010  0.00004  0.00000  0.00001   2436.0
         Total DFT energy =     -644.341933368905
         Total DFT energy =   -644.341933368905
@   97    -644.34193337  5.0D-06  0.00000  0.00000  0.00027  0.00054   2450.6
         Total DFT energy =     -644.341933394752
         Total DFT energy =   -644.341933394752
@   98    -644.34193339 -2.6D-08  0.00000  0.00000  0.00000  0.00000   2465.1
@   98    -644.34193339 -2.6D-08  0.00000  0.00000  0.00000  0.00000   2465.1

 Output coordinates in angstroms (scale by  1.889725989 to convert to a.u.)

  No.       Tag          Charge          X              Y              Z
 ---- ---------------- ---------- -------------- -------------- --------------
    1 P                   15.0000     0.00000000     0.00000000     0.14440633
    2 O                    8.0000     0.17999740     1.41345010    -0.56976031
    3 O                    8.0000     1.13408499    -0.86260737    -0.56976031
    4 O                    8.0000    -1.31408240    -0.55084273    -0.56976031
    5 O                    8.0000    -0.00000000     0.00000000     1.61606322
    6 H                    1.0000    -0.20421046     2.14820610    -0.06996697
    7 H                    1.0000     1.96250629    -0.89725161    -0.06996697
    8 H                    1.0000    -1.75829583    -1.25095450    -0.06996697

 Total times  cpu:     2440.6s     wall:     2465.1s
