============================== echo of input deck ==============================
echo

start molecule

# https://nwchemgit.github.io/Memory.html
memory total 40 gb

print low

title "H3PO4"
charge 0

geometry units angstroms print xyz autosym
  load format xyz h3po4_startgeom.xyz
end

basis
  * library 6-311++G(2d,2p)
end

dft
  grid fine
 # grid huge
  xc pbe0
  mult 1
# Reduce output during geometry optimization
  noprint "final vectors analysis"
  print low
end

driver
#  clear
  tight
#  linopt 0
  maxiter 9999
  xyz h3po4_geom_pbe0
  print low
end

cosmo
  solvent chcl3
end

task dft optimize

================================================================================

         Total DFT energy =     -643.875900390481
@ Step       Energy      Delta E   Gmax     Grms     Xrms     Xmax   Walltime
@ ---- ---------------- -------- -------- -------- -------- -------- --------
@    0    -643.87590039  0.0D+00  0.00619  0.00211  0.00000  0.00000     16.1
         Total DFT energy =     -643.876395394458
         Total DFT energy =     -643.876494460574
@    1    -643.87649446 -5.9D-04  0.00474  0.00195  0.02024  0.03952     41.3
         Total DFT energy =     -643.876918448857
         Total DFT energy =     -643.876869359539
@    2    -643.87686936 -3.7D-04  0.00763  0.00233  0.01928  0.03509     66.9
         Total DFT energy =     -643.877266771276
         Total DFT energy =     -643.877196086238
@    3    -643.87719609 -3.3D-04  0.00474  0.00150  0.01447  0.03376     92.4
         Total DFT energy =     -643.877511670885
         Total DFT energy =     -643.877433745163
@    4    -643.87743375 -2.4D-04  0.00117  0.00075  0.01400  0.02876    117.8
         Total DFT energy =     -643.877755878377
         Total DFT energy =     -643.877691339674
@    5    -643.87769134 -2.6D-04  0.00112  0.00070  0.01580  0.03055    143.5
         Total DFT energy =     -643.878082084605
         Total DFT energy =   -643.878082084605
@    6    -643.87808208 -3.9D-04  0.00088  0.00054  0.01884  0.03796    158.0
         Total DFT energy =     -643.878502702506
         Total DFT energy =     -643.878820264053
@    7    -643.87882026 -7.4D-04  0.00075  0.00029  0.03345  0.06872    183.9
         Total DFT energy =     -643.879162507573
         Total DFT energy =     -643.879436662777
@    8    -643.87943666 -6.2D-04  0.00063  0.00024  0.03737  0.07357    209.5
         Total DFT energy =     -643.879568041408
         Total DFT energy =     -643.879668993551
@    9    -643.87966899 -2.3D-04  0.00043  0.00018  0.01896  0.03912    234.6
         Total DFT energy =     -643.879569305003
         Total DFT energy =     -643.879657788768
@   10    -643.87965779  1.1D-05  0.00039  0.00016  0.00115  0.00234    259.5
         Total DFT energy =     -643.879612482792
         Total DFT energy =     -643.879652724792
@   11    -643.87965272  5.1D-06  0.00037  0.00015  0.00049  0.00099    284.8
         Total DFT energy =     -643.879631849130
         Total DFT energy =     -643.879650396592
@   12    -643.87965040  2.3D-06  0.00036  0.00015  0.00022  0.00045    310.4
         Total DFT energy =     -643.879590021387
         Total DFT energy =     -643.879644417400
@   13    -643.87964442  6.0D-06  0.00033  0.00014  0.00056  0.00113    335.2
         Total DFT energy =     -643.879605099183
         Total DFT energy =     -643.879640630837
@   14    -643.87964063  3.8D-06  0.00032  0.00013  0.00035  0.00070    360.7
         Total DFT energy =     -643.879570185161
         Total DFT energy =     -643.879634577838
@   15    -643.87963458  6.1D-06  0.00029  0.00012  0.00055  0.00111    386.5
         Total DFT energy =     -643.879599777957
         Total DFT energy =     -643.879631618175
@   16    -643.87963162  3.0D-06  0.00028  0.00011  0.00026  0.00053    412.1
         Total DFT energy =     -643.879569611491
         Total DFT energy =     -643.879626841892
@   17    -643.87962684  4.8D-06  0.00026  0.00010  0.00042  0.00086    437.4
         Total DFT energy =     -643.879569023460
         Total DFT energy =     -643.879622673365
@   18    -643.87962267  4.2D-06  0.00024  0.00010  0.00036  0.00074    462.6
         Total DFT energy =     -643.879568756774
         Total DFT energy =     -643.879619015551
@   19    -643.87961902  3.7D-06  0.00022  0.00009  0.00032  0.00064    488.2
         Total DFT energy =     -643.879568569320
         Total DFT energy =     -643.879615784643
@   20    -643.87961578  3.2D-06  0.00021  0.00009  0.00028  0.00056    513.6
         Total DFT energy =     -643.879568077659
         Total DFT energy =     -643.879612893290
@   21    -643.87961289  2.9D-06  0.00020  0.00008  0.00025  0.00050    539.2
         Total DFT energy =     -643.879567882768
         Total DFT energy =     -643.879610302894
@   22    -643.87961030  2.6D-06  0.00019  0.00008  0.00022  0.00044    565.0
         Total DFT energy =     -643.879567692886
         Total DFT energy =     -643.879607968561
@   23    -643.87960797  2.3D-06  0.00018  0.00007  0.00020  0.00040    590.4
         Total DFT energy =     -643.879567365879
         Total DFT energy =     -643.879605848414
@   24    -643.87960585  2.1D-06  0.00017  0.00007  0.00018  0.00036    615.8
         Total DFT energy =     -643.879567409610
         Total DFT energy =     -643.879603926741
@   25    -643.87960393  1.9D-06  0.00016  0.00007  0.00016  0.00032    641.6
         Total DFT energy =     -643.879567105962
         Total DFT energy =     -643.879602166780
@   26    -643.87960217  1.8D-06  0.00015  0.00006  0.00015  0.00029    667.0
         Total DFT energy =     -643.879566922509
         Total DFT energy =     -643.879600550983
@   27    -643.87960055  1.6D-06  0.00015  0.00006  0.00013  0.00027    692.6
         Total DFT energy =     -643.879566752625
         Total DFT energy =     -643.879599061564
@   28    -643.87959906  1.5D-06  0.00014  0.00006  0.00012  0.00025    717.7
         Total DFT energy =     -643.879562840950
         Total DFT energy =     -643.879597537499
@   29    -643.87959754  1.5D-06  0.00013  0.00006  0.00012  0.00025    743.5
         Total DFT energy =     -643.879562840728
         Total DFT energy =     -643.879596135484
@   30    -643.87959614  1.4D-06  0.00013  0.00005  0.00011  0.00023    769.1
         Total DFT energy =     -643.879562848352
         Total DFT energy =     -643.879594842899
@   31    -643.87959484  1.3D-06  0.00012  0.00005  0.00010  0.00021    794.5
         Total DFT energy =     -643.879562863571
         Total DFT energy =     -643.879593647015
@   32    -643.87959365  1.2D-06  0.00012  0.00005  0.00010  0.00020    820.4
         Total DFT energy =     -643.879563112223
         Total DFT energy =     -643.879569255918
@  137    -643.87956926  4.7D-08  0.00002  0.00001  0.00000  0.00001   3494.8
         Total DFT energy =     -643.879563112928
         Total DFT energy =     -643.879569210051
@  138    -643.87956921  4.6D-08  0.00002  0.00001  0.00000  0.00001   3519.8
         Total DFT energy =     -643.879563113653
         Total DFT energy =     -643.879569164729
@  139    -643.87956916  4.5D-08  0.00002  0.00001  0.00000  0.00001   3544.8
         Total DFT energy =     -643.879563114911
         Total DFT energy =     -643.879569119994
@  140    -643.87956912  4.5D-08  0.00002  0.00001  0.00000  0.00001   3570.8
         Total DFT energy =     -643.879563115602
         Total DFT energy =     -643.879569075944
@  141    -643.87956908  4.4D-08  0.00002  0.00001  0.00000  0.00001   3596.2
         Total DFT energy =     -643.879563116352
         Total DFT energy =     -643.879569032897
@  142    -643.87956903  4.3D-08  0.00002  0.00001  0.00000  0.00001   3621.3
         Total DFT energy =     -643.879563116150
         Total DFT energy =     -643.879568990086
@  143    -643.87956899  4.3D-08  0.00002  0.00001  0.00000  0.00001   3647.2
         Total DFT energy =     -643.879563116578
         Total DFT energy =     -643.879568948039
@  144    -643.87956895  4.2D-08  0.00002  0.00001  0.00000  0.00001   3673.1
         Total DFT energy =     -643.879563117383
         Total DFT energy =     -643.879568906664
@  145    -643.87956891  4.1D-08  0.00002  0.00001  0.00000  0.00001   3698.4
         Total DFT energy =     -643.879563117900
         Total DFT energy =     -643.879568865825
@  146    -643.87956887  4.1D-08  0.00002  0.00001  0.00000  0.00001   3724.0
         Total DFT energy =     -643.879563118576
         Total DFT energy =     -643.879568825422
@  147    -643.87956883  4.0D-08  0.00002  0.00001  0.00000  0.00001   3749.9
         Total DFT energy =     -643.879563118997
         Total DFT energy =     -643.879568785738
@  148    -643.87956879  4.0D-08  0.00002  0.00001  0.00000  0.00001   3775.4
         Total DFT energy =     -643.879563119778
         Total DFT energy =     -643.879568746655
@  149    -643.87956875  3.9D-08  0.00002  0.00001  0.00000  0.00001   3801.0
         Total DFT energy =     -643.879563120579
         Total DFT energy =     -643.879568708051
@  150    -643.87956871  3.9D-08  0.00002  0.00001  0.00000  0.00001   3826.8
         Total DFT energy =     -643.879563121151
         Total DFT energy =     -643.879568669946
@  151    -643.87956867  3.8D-08  0.00002  0.00001  0.00000  0.00001   3852.1
         Total DFT energy =     -643.879563121524
         Total DFT energy =     -643.879568632497
@  152    -643.87956863  3.7D-08  0.00002  0.00001  0.00000  0.00001   3877.5
         Total DFT energy =     -643.879563122095
         Total DFT energy =     -643.879568595407
@  153    -643.87956860  3.7D-08  0.00002  0.00001  0.00000  0.00001   3902.9
         Total DFT energy =     -643.879563124235
         Total DFT energy =     -643.879568558721
@  154    -643.87956856  3.7D-08  0.00002  0.00001  0.00000  0.00001   3928.2
         Total DFT energy =     -643.879563124907
         Total DFT energy =     -643.879568522721
@  155    -643.87956852  3.6D-08  0.00002  0.00001  0.00000  0.00001   3953.6
         Total DFT energy =     -643.879563125385
         Total DFT energy =     -643.879568487206
@  156    -643.87956849  3.6D-08  0.00002  0.00001  0.00000  0.00001   3979.1
         Total DFT energy =     -643.879563126012
         Total DFT energy =     -643.879568452100
@  157    -643.87956845  3.5D-08  0.00002  0.00001  0.00000  0.00001   4004.1
         Total DFT energy =     -643.879563126780
         Total DFT energy =     -643.879568417524
@  158    -643.87956842  3.5D-08  0.00002  0.00001  0.00000  0.00001   4029.1
         Total DFT energy =     -643.879563127398
         Total DFT energy =     -643.879568383294
@  159    -643.87956838  3.4D-08  0.00002  0.00001  0.00000  0.00001   4054.4
         Total DFT energy =     -643.879563127913
         Total DFT energy =     -643.879568349520
@  160    -643.87956835  3.4D-08  0.00002  0.00001  0.00000  0.00001   4079.8
         Total DFT energy =     -643.879563128360
         Total DFT energy =     -643.879568316419
@  161    -643.87956832  3.3D-08  0.00002  0.00001  0.00000  0.00001   4105.0
         Total DFT energy =     -643.879563129280
         Total DFT energy =     -643.879568283450
@  162    -643.87956828  3.3D-08  0.00002  0.00001  0.00000  0.00001   4130.3
         Total DFT energy =     -643.879563129986
         Total DFT energy =     -643.879568250914
@  163    -643.87956825  3.3D-08  0.00002  0.00001  0.00000  0.00001   4156.2
         Total DFT energy =     -643.879563130460
         Total DFT energy =     -643.879568218987
@  164    -643.87956822  3.2D-08  0.00002  0.00001  0.00000  0.00000   4182.3
         Total DFT energy =     -643.879563131055
         Total DFT energy =     -643.879568187424
@  165    -643.87956819  3.2D-08  0.00002  0.00001  0.00000  0.00000   4207.7
         Total DFT energy =     -643.879563131632
         Total DFT energy =     -643.879568156065
@  166    -643.87956816  3.1D-08  0.00002  0.00001  0.00000  0.00000   4232.8
         Total DFT energy =     -643.879563131775
         Total DFT energy =     -643.879568125284
@  167    -643.87956813  3.1D-08  0.00002  0.00001  0.00000  0.00000   4258.1
         Total DFT energy =     -643.879563132232
         Total DFT energy =   -643.879563132232
@  168    -643.87956313  5.0D-06  0.00000  0.00000  0.00038  0.00077   4272.8
         Total DFT energy =     -643.879563209224
         Total DFT energy =   -643.879563209224
@  169    -643.87956321 -7.7D-08  0.00000  0.00000  0.00001  0.00001   4287.8
@  169    -643.87956321 -7.7D-08  0.00000  0.00000  0.00001  0.00001   4287.8

 Output coordinates in angstroms (scale by  1.889725989 to convert to a.u.)

  No.       Tag          Charge          X              Y              Z
 ---- ---------------- ---------- -------------- -------------- --------------
    1 P                   15.0000    -0.00000000     0.00000000     0.14002818
    2 O                    8.0000     0.18616664     1.40707627    -0.56774960
    3 O                    8.0000     1.12548048    -0.86476317    -0.56774960
    4 O                    8.0000    -1.31164711    -0.54231310    -0.56774960
    5 O                    8.0000     0.00000000    -0.00000000     1.60742877
    6 H                    1.0000    -0.20826424     2.13284983    -0.06764015
    7 H                    1.0000     1.95123426    -0.88606279    -0.06764015
    8 H                    1.0000    -1.74297001    -1.24678704    -0.06764015

 Total times  cpu:     4244.2s     wall:     4287.8s
