============================== echo of input deck ==============================
echo

start molecule

memory total 40 gb
print low

title "Mustard gas, HD"
charge 0

geometry units angstroms print xyz autosym
  load format xyz HD_geom_6-31Gs-017_final.xyz
end

basis
  * library 6-31G*
end

dft
  grid huge
  xc b3lyp
  mult 1
  noprint "final vectors analysis"
end

driver
  clear
  tight
  linopt 0
  maxiter 90
end

property
  giao
  shielding
end

task dft optimize
task dft freq
task dft property

================================================================================

         Total DFT energy =    -1475.829297765260
@ Step       Energy      Delta E   Gmax     Grms     Xrms     Xmax   Walltime
@ ---- ---------------- -------- -------- -------- -------- -------- --------
@    0   -1475.82929777  0.0D+00  0.00000  0.00000  0.00000  0.00000     53.2
         Total DFT energy =    -1475.829297814986
@    1   -1475.82929781 -5.0D-08  0.00000  0.00000  0.00003  0.00007     79.1
         Total DFT energy =    -1475.829297819383
@    2   -1475.82929782 -4.4D-09  0.00000  0.00000  0.00003  0.00006    105.1
@    2   -1475.82929782 -4.4D-09  0.00000  0.00000  0.00003  0.00006    105.1

 Output coordinates in angstroms (scale by  1.889725989 to convert to a.u.)

  No.       Tag          Charge          X              Y              Z
 ---- ---------------- ---------- -------------- -------------- --------------
    1 Cl                  17.0000    -4.11536287    -0.00022140    -0.60053676
    2 Cl                  17.0000     4.11536287     0.00022140    -0.60053676
    3 S                   16.0000     0.00000000     0.00000000     0.96951781
    4 C                    6.0000    -1.39605755    -0.00102298    -0.23345277
    5 C                    6.0000     1.39605755     0.00102298    -0.23345277
    6 C                    6.0000    -2.70468357     0.00140055     0.54281643
    7 C                    6.0000     2.70468357    -0.00140055     0.54281643
    8 H                    1.0000    -1.33321353    -0.89165927    -0.86581261
    9 H                    1.0000    -1.33177965     0.88737864    -0.86880950
   10 H                    1.0000     1.33321353     0.89165927    -0.86581261
   11 H                    1.0000     1.33177965    -0.88737864    -0.86880950
   12 H                    1.0000    -2.80583813    -0.88745116     1.16761186
   13 H                    1.0000    -2.80474194     0.89301837     1.16381912
   14 H                    1.0000     2.80583813     0.88745116     1.16761186
   15 H                    1.0000     2.80474194    -0.89301837     1.16381912

         Total DFT energy =    -1475.829297647640
 Zero-Point correction to Energy  =   73.384 kcal/mol  (  0.116945 au)
 Thermal correction to Energy     =   79.329 kcal/mol  (  0.126418 au)
 Thermal correction to Enthalpy   =   79.921 kcal/mol  (  0.127362 au)
 Total Entropy                    =  100.856 cal/mol-K
   - Translational                =   41.063 cal/mol-K (mol. weight = 157.9724)
   - Rotational                   =   29.054 cal/mol-K (symmetry #  =        2)
   - Vibrational                  =   30.739 cal/mol-K
   - Translational                  =    2.979 cal/mol-K
   - Rotational                     =    2.979 cal/mol-K
   - Vibrational                    =   24.040 cal/mol-K
 P.Frequency       -0.00       -0.00        0.00        0.00        0.00        0.00
 P.Frequency       28.17       43.69       60.65      110.07      111.35      203.52
 P.Frequency      213.62      324.12      331.73      702.83      716.97      761.80
 P.Frequency      784.59      792.41      795.48      987.74     1012.20     1041.91
 P.Frequency     1073.81     1152.66     1158.07     1249.85     1279.93     1310.43
 P.Frequency     1313.70     1351.92     1368.35     1515.48     1520.74     1520.99
 P.Frequency     1523.61     3076.01     3077.36     3114.64     3114.71     3127.43
 P.Frequency     3131.10     3176.47     3177.13

 Normal Eigenvalue ||           Projected Infra Red Intensities
  Mode   [cm**-1]  || [atomic units] [(debye/angs)**2] [(KM/mol)] [arbitrary]
 ------ ---------- || -------------- ----------------- ---------- -----------
    1       -0.000 ||    0.000009           0.000         0.009       0.011
    2       -0.000 ||    0.000000           0.000         0.000       0.000
    3        0.000 ||    0.000012           0.000         0.012       0.015
    4        0.000 ||    0.000157           0.004         0.153       0.200
    5        0.000 ||    0.000099           0.002         0.096       0.125
    6        0.000 ||    0.000005           0.000         0.005       0.006
    7       28.170 ||    0.000000           0.000         0.000       0.000
    8       43.695 ||    0.000000           0.000         0.000       0.000
    9       60.647 ||    0.001124           0.026         1.096       1.428
   10      110.074 ||    0.000000           0.000         0.000       0.000
   11      111.355 ||    0.011892           0.274        11.593      15.109
   12      203.518 ||    0.009905           0.229         9.656      12.585
   13      213.618 ||    0.000043           0.001         0.042       0.054
   14      324.118 ||    0.000580           0.013         0.566       0.737
   15      331.727 ||    0.003525           0.081         3.436       4.478
   16      702.835 ||    0.021181           0.489        20.648      26.910
   17      716.974 ||    0.093596           2.159        91.242     118.914
   18      761.796 ||    0.007317           0.169         7.133       9.297
   19      784.591 ||    0.000000           0.000         0.000       0.000
   20      792.410 ||    0.004285           0.099         4.177       5.444
   21      795.477 ||    0.007681           0.177         7.488       9.758
   22      987.740 ||    0.000000           0.000         0.000       0.000
   23     1012.201 ||    0.000136           0.003         0.133       0.173
   24     1041.914 ||    0.016423           0.379        16.010      20.866
   25     1073.808 ||    0.001634           0.038         1.593       2.076
   26     1152.659 ||    0.000000           0.000         0.000       0.000
   27     1158.069 ||    0.002458           0.057         2.396       3.123
   28     1249.850 ||    0.036632           0.845        35.710      46.541
   29     1279.927 ||    0.034321           0.792        33.458      43.605
   30     1310.429 ||    0.000000           0.000         0.000       0.000
   31     1313.702 ||    0.001232           0.028         1.201       1.565
   32     1351.917 ||    0.009018           0.208         8.791      11.457
   33     1368.353 ||    0.003562           0.082         3.473       4.526
   34     1515.484 ||    0.009443           0.218         9.206      11.998
   35     1520.736 ||    0.001184           0.027         1.155       1.505
   36     1520.989 ||    0.006856           0.158         6.683       8.710
   37     1523.614 ||    0.000573           0.013         0.559       0.729
   38     3076.011 ||    0.020046           0.462        19.542      25.469
   39     3077.356 ||    0.001544           0.036         1.506       1.962
   40     3114.640 ||    0.023663           0.546        23.067      30.063
   41     3114.705 ||    0.000581           0.013         0.567       0.739
   42     3127.430 ||    0.010240           0.236         9.983      13.010
   43     3131.102 ||    0.000000           0.000         0.000       0.000
   44     3176.475 ||    0.013231           0.305        12.899      16.810
   45     3177.130 ||    0.000000           0.000         0.000       0.000
 ----------------------------------------------------------------------------

         Total DFT energy =    -1475.829297647818
      Atom:    1  Cl
           isotropic =     824.3992
      Atom:    2  Cl
           isotropic =     824.3992
      Atom:    3  S
           isotropic =     535.6079
      Atom:    4  C
           isotropic =     150.1086
      Atom:    5  C
           isotropic =     150.1086
      Atom:    6  C
           isotropic =     144.5470
      Atom:    7  C
           isotropic =     144.5470
      Atom:    8  H
           isotropic =      29.5301
      Atom:    9  H
           isotropic =      29.5335
      Atom:   10  H
           isotropic =      29.5301
      Atom:   11  H
           isotropic =      29.5335
      Atom:   12  H
           isotropic =      28.8457
      Atom:   13  H
           isotropic =      28.8439
      Atom:   14  H
           isotropic =      28.8457
      Atom:   15  H
           isotropic =      28.8439
 Total times  cpu:     2284.5s     wall:     2287.5s
