============================== echo of input deck ==============================
echo

start molecule

# https://nwchemgit.github.io/Memory.html
memory total 40 gb

print low

title "VX"
charge 0

geometry units angstroms print xyz autosym
  load format xyz h3po4_startgeom.xyz
end

basis
  * library 6-311++G(2d,2p)
end

dft
  #grid fine
  grid huge
  xc b3lyp
  mult 1
# Reduce output during geometry optimization
  noprint "final vectors analysis"
end

driver
  clear
  tight
  linopt 0
  maxiter 9999
  xyz h3po4_geom
end

property
  giao
  shielding
end

cosmo
  solvent chcl3
end

task dft optimize
task dft freq
task dft property

================================================================================

         Total DFT energy =     -644.341794354664
@ Step       Energy      Delta E   Gmax     Grms     Xrms     Xmax   Walltime
@ ---- ---------------- -------- -------- -------- -------- -------- --------
@    0    -644.34179435  0.0D+00  0.01164  0.00446  0.00000  0.00000     55.6
         Total DFT energy =     -644.342217413051
@    1    -644.34221741 -4.2D-04  0.00378  0.00162  0.02047  0.05843    107.7
         Total DFT energy =     -644.341951245350
@    2    -644.34195125  2.7D-04  0.00201  0.00098  0.01819  0.04046    160.3
         Total DFT energy =     -644.341774245323
@    3    -644.34177425  1.8D-04  0.00334  0.00133  0.00920  0.01475    213.3
         Total DFT energy =     -644.341734727555
@    4    -644.34173473  4.0D-05  0.00353  0.00137  0.00480  0.00874    266.0
         Total DFT energy =     -644.341742381733
@    5    -644.34174238 -7.7D-06  0.00330  0.00128  0.00281  0.00524    319.8
         Total DFT energy =     -644.341769543180
@    6    -644.34176954 -2.7D-05  0.00131  0.00062  0.01305  0.02414    370.9
         Total DFT energy =     -644.341517753835
@    7    -644.34151775  2.5D-04  0.00045  0.00025  0.01933  0.03263    425.1
         Total DFT energy =     -644.341325189070
@    8    -644.34132519  1.9D-04  0.00029  0.00018  0.01003  0.01666    478.0
         Total DFT energy =     -644.341248094049
@    9    -644.34124809  7.7D-05  0.00022  0.00013  0.00383  0.00655    532.8
         Total DFT energy =     -644.341213322146
@   10    -644.34121332  3.5D-05  0.00018  0.00011  0.00170  0.00296    584.3
         Total DFT energy =     -644.341183521977
@   11    -644.34118352  3.0D-05  0.00016  0.00010  0.00145  0.00254    637.4
         Total DFT energy =     -644.341157909480
@   12    -644.34115791  2.6D-05  0.00013  0.00008  0.00123  0.00218    690.0
         Total DFT energy =     -644.341135898141
@   13    -644.34113590  2.2D-05  0.00011  0.00007  0.00105  0.00187    742.3
         Total DFT energy =     -644.341117019673
@   14    -644.34111702  1.9D-05  0.00010  0.00006  0.00090  0.00160    795.2
         Total DFT energy =     -644.341100696945
@   15    -644.34110070  1.6D-05  0.00008  0.00005  0.00076  0.00137    847.9
         Total DFT energy =     -644.341086904950
@   16    -644.34108690  1.4D-05  0.00007  0.00004  0.00065  0.00117    900.0
         Total DFT energy =     -644.341074900697
@   17    -644.34107490  1.2D-05  0.00006  0.00004  0.00056  0.00100    951.7
         Total DFT energy =     -644.341064817465
@   18    -644.34106482  1.0D-05  0.00005  0.00003  0.00047  0.00085   1003.8
         Total DFT energy =     -644.341056031359
@   19    -644.34105603  8.8D-06  0.00004  0.00003  0.00040  0.00073   1056.6
         Total DFT energy =     -644.341048594639
@   20    -644.34104859  7.4D-06  0.00004  0.00002  0.00034  0.00062   1108.4
         Total DFT energy =     -644.341042345906
@   21    -644.34104235  6.2D-06  0.00003  0.00002  0.00029  0.00053   1160.2
         Total DFT energy =     -644.341036841562
@   22    -644.34103684  5.5D-06  0.00003  0.00002  0.00025  0.00046   1213.1
         Total DFT energy =     -644.341032248763
@   23    -644.34103225  4.6D-06  0.00002  0.00001  0.00021  0.00038   1264.6
         Total DFT energy =     -644.341013857663
@   24    -644.34101386  1.8D-05  0.00001  0.00000  0.00084  0.00153   1318.1
         Total DFT energy =     -644.341009773284
@   25    -644.34100977  4.1D-06  0.00000  0.00000  0.00018  0.00033   1371.1
         Total DFT energy =     -644.341006162991
@   26    -644.34100616  3.6D-06  0.00000  0.00000  0.00016  0.00030   1422.2
         Total DFT energy =     -644.341005802579
@   27    -644.34100580  3.6D-07  0.00000  0.00000  0.00002  0.00003   1475.1
@   27    -644.34100580  3.6D-07  0.00000  0.00000  0.00002  0.00003   1475.1

 Output coordinates in angstroms (scale by  1.889725989 to convert to a.u.)

  No.       Tag          Charge          X              Y              Z
 ---- ---------------- ---------- -------------- -------------- --------------
    1 P                   15.0000     0.00000000    -0.00000000     0.18012603
    2 O                    8.0000    -1.27053135    -0.64775964    -0.53225843
    3 O                    8.0000     0.07428937     1.42419224    -0.53225843
    4 O                    8.0000     1.19624198    -0.77643260    -0.53225843
    5 O                    8.0000     0.00000000     0.00000000     1.65138936
    6 H                    1.0000    -1.45478921    -1.54362285    -0.22317560
    7 H                    1.0000    -0.60942200     2.03169584    -0.22317560
    8 H                    1.0000     2.06421121    -0.48807299    -0.22317560

         Total DFT energy =     -644.341005802900
         Total DFT energy =     -644.340993542118
         Total DFT energy =     -644.340982863145
         Total DFT energy =     -644.340972263677
         Total DFT energy =     -644.341004190260
         Total DFT energy =     -644.340904877437
         Total DFT energy =     -644.341036774074
         Total DFT energy =     -644.340980076197
         Total DFT energy =     -644.340984968338
         Total DFT energy =     -644.341026563631
         Total DFT energy =     -644.340984718149
         Total DFT energy =     -644.341016099355
         Total DFT energy =     -644.340995632109
         Total DFT energy =     -644.341011214524
         Total DFT energy =     -644.341012366818
         Total DFT energy =     -644.341015754397
         Total DFT energy =     -644.341007818589
         Total DFT energy =     -644.340982118869
         Total DFT energy =     -644.340983900018
         Total DFT energy =     -644.341006265548
         Total DFT energy =     -644.340978264708
         Total DFT energy =     -644.340999822057
         Total DFT energy =     -644.341022608853
         Total DFT energy =     -644.341026088685
         Total DFT energy =     -644.340995846397
 Zero-Point correction to Energy  =   29.830 kcal/mol  (  0.047536 au)
 Thermal correction to Energy     =   33.031 kcal/mol  (  0.052638 au)
 Thermal correction to Enthalpy   =   33.623 kcal/mol  (  0.053582 au)
 Total Entropy                    =   70.296 cal/mol-K
   - Translational                =   39.639 cal/mol-K (mol. weight =  97.9769)
   - Rotational                   =   23.490 cal/mol-K (symmetry #  =        3)
   - Vibrational                  =    7.167 cal/mol-K
   - Translational                  =    2.979 cal/mol-K
   - Rotational                     =    2.979 cal/mol-K
   - Vibrational                    =   11.610 cal/mol-K
 P.Frequency     -120.75     -120.75       -0.00       -0.00       -0.00       -0.00
 P.Frequency        0.00        0.00      238.44      351.37      351.37      454.17
 P.Frequency      454.17      457.88      824.86      889.40      889.40     1075.86
 P.Frequency     1116.19     1116.19     1262.98     3796.31     3796.31     3801.12

 Normal Eigenvalue ||           Projected Infra Red Intensities
  Mode   [cm**-1]  || [atomic units] [(debye/angs)**2] [(KM/mol)] [arbitrary]
 ------ ---------- || -------------- ----------------- ---------- -----------
    1     -120.747 ||    0.125972           2.906       122.803       9.586
    2     -120.747 ||    0.125972           2.906       122.803       9.586
    3       -0.000 ||    0.000056           0.001         0.055       0.004
    4       -0.000 ||    0.000723           0.017         0.704       0.055
    5       -0.000 ||    0.000787           0.018         0.767       0.060
    6       -0.000 ||    0.000203           0.005         0.197       0.015
    7        0.000 ||    0.000129           0.003         0.126       0.010
    8        0.000 ||    0.000092           0.002         0.089       0.007
    9      238.442 ||    0.312251           7.204       304.398      23.761
   10      351.374 ||    0.018629           0.430        18.160       1.418
   11      351.374 ||    0.018629           0.430        18.160       1.418
   12      454.168 ||    0.091075           2.101        88.784       6.930
   13      454.168 ||    0.091075           2.101        88.784       6.930
   14      457.877 ||    0.013035           0.301        12.707       0.992
   15      824.865 ||    0.047624           1.099        46.426       3.624
   16      889.395 ||    0.412177           9.509       401.811      31.365
   17      889.395 ||    0.412177           9.509       401.811      31.365
   18     1075.856 ||    0.151519           3.496       147.708      11.530
   19     1116.188 ||    0.116949           2.698       114.008       8.899
   20     1116.188 ||    0.116949           2.698       114.008       8.899
   21     1262.982 ||    0.472625          10.904       460.738      35.965
   22     3796.313 ||    0.309849           7.148       302.056      23.578
   23     3796.313 ||    0.309849           7.148       302.056      23.578
   24     3801.120 ||    0.005584           0.129         5.444       0.425
 ----------------------------------------------------------------------------

         Total DFT energy =     -644.341014724033
      Atom:    1  P
           isotropic =     289.7290
      Atom:    2  O
           isotropic =     227.1531
      Atom:    3  O
           isotropic =     226.6067
      Atom:    4  O
           isotropic =     227.3068
      Atom:    5  O
           isotropic =     182.2696
      Atom:    6  H
           isotropic =      27.4362
      Atom:    7  H
           isotropic =      27.4896
      Atom:    8  H
           isotropic =      27.4469
 Total times  cpu:     5213.6s     wall:     5224.1s
