============================== echo of input deck ==============================
echo
title "VS98/6-31+G* h2o gradient "

start h2o

geometry
   O                    -0.091502   -0.000000   -0.071590
   H                    -0.108430   -0.000000    0.892753
   H                     0.840442    0.000000   -0.320034
end

basis
* library 6-31+G*
end

dft
xc vs98
mult 1
grid fine
end

task dft gradient
================================================================================

 Output coordinates in angstroms (scale by  1.889725989 to convert to a.u.)

  No.       Tag          Charge          X              Y              Z
 ---- ---------------- ---------- -------------- -------------- --------------
    1 O                    8.0000     0.00000000     0.00000000    -0.11617942
    2 H                    1.0000    -0.76993675     0.00000000     0.46471766
    3 H                    1.0000     0.76993675     0.00000000     0.46471766

         Total DFT energy =      -76.439766112521

                       DFT Final Molecular Orbital Analysis
                       ------------------------------------

 Vector    1  Occ=2.000000D+00  E=-1.889380D+01  Symmetry=a1

 Vector    2  Occ=2.000000D+00  E=-9.611251D-01  Symmetry=a1

 Vector    3  Occ=2.000000D+00  E=-4.992128D-01  Symmetry=b1

 Vector    4  Occ=2.000000D+00  E=-3.441778D-01  Symmetry=a1

 Vector    5  Occ=2.000000D+00  E=-2.670428D-01  Symmetry=b2

 Vector    6  Occ=0.000000D+00  E= 2.047827D-02  Symmetry=a1

 Vector    7  Occ=0.000000D+00  E= 1.133536D-01  Symmetry=b1

 Vector    8  Occ=0.000000D+00  E= 1.591482D-01  Symmetry=b2

 Vector    9  Occ=0.000000D+00  E= 1.624294D-01  Symmetry=a1

 Vector   10  Occ=0.000000D+00  E= 2.074661D-01  Symmetry=b1

 Vector   11  Occ=0.000000D+00  E= 2.364868D-01  Symmetry=a1

 Vector   12  Occ=0.000000D+00  E= 9.270634D-01  Symmetry=b1

 Vector   13  Occ=0.000000D+00  E= 1.015913D+00  Symmetry=a1

 Vector   14  Occ=0.000000D+00  E= 1.102606D+00  Symmetry=b2

 Vector   15  Occ=0.000000D+00  E= 1.106985D+00  Symmetry=b1

 Vector   16  Occ=0.000000D+00  E= 1.130764D+00  Symmetry=a1

 Vector   17  Occ=0.000000D+00  E= 1.235107D+00  Symmetry=a1

 Vector   18  Occ=0.000000D+00  E= 1.675537D+00  Symmetry=a1

 Vector   19  Occ=0.000000D+00  E= 1.682667D+00  Symmetry=a2

 Vector   20  Occ=0.000000D+00  E= 1.722293D+00  Symmetry=b2

 Vector   21  Occ=0.000000D+00  E= 2.243228D+00  Symmetry=a1

 Vector   22  Occ=0.000000D+00  E= 2.605660D+00  Symmetry=b1

 Vector   23  Occ=0.000000D+00  E= 3.680887D+00  Symmetry=a1

     Multipole analysis of the density
     ---------------------------------

     L   x y z        total         alpha         beta         nuclear
     -   - - -        -----         -----         ----         -------
     0   0 0 0     -0.000000     -5.000000     -5.000000     10.000000

     1   1 0 0      0.000000      0.000000      0.000000      0.000000
     1   0 1 0      0.000000      0.000000      0.000000      0.000000
     1   0 0 1      0.869114      0.434557      0.434557      0.000000

     2   2 0 0     -3.209806     -3.721839     -3.721839      4.233872
     2   1 1 0      0.000000      0.000000      0.000000      0.000000
     2   1 0 1      0.000000      0.000000      0.000000      0.000000
     2   0 2 0     -5.878453     -2.939227     -2.939227      0.000000
     2   0 1 1      0.000000      0.000000      0.000000      0.000000

 Total times  cpu:        2.5s     wall:        1.3s
