============================== echo of input deck ==============================
echo

start molecule

memory stack 1750 mb heap 100 mb global 425 mb noverify

title "Mustard gas, HD"
charge 0

geometry units angstroms print xyz autosym
  load format xyz HD_konformer81.xyz
end

basis
  * library 6-31G*
end

dft
#  grid fine
  grid huge
  xc b3lyp
  mult 1
end

driver
  clear
  tight
  linopt 0
  maxiter 50
  xyz HD_geom_6-31Gs
end

task dft optimize
#set int:txs:limxmem               29379684
#dft
#   grid S 750 18 Cl 350 18
#end
task dft freq

================================================================================

         Total DFT energy =    -1475.828121138211
@ Step       Energy      Delta E   Gmax     Grms     Xrms     Xmax   Walltime
@ ---- ---------------- -------- -------- -------- -------- -------- --------
@    0   -1475.82812114  0.0D+00  0.01206  0.00256  0.00000  0.00000     89.6
         Total DFT energy =    -1475.829107943994
@    1   -1475.82910794 -9.9D-04  0.00403  0.00087  0.02639  0.06514    164.9
         Total DFT energy =    -1475.829264009997
@    2   -1475.82926401 -1.6D-04  0.00064  0.00018  0.01688  0.03822    230.9
         Total DFT energy =    -1475.829286253885
@    3   -1475.82928625 -2.2D-05  0.00027  0.00009  0.00268  0.00540    279.9
         Total DFT energy =    -1475.829296445968
@    4   -1475.82929645 -1.0D-05  0.00014  0.00005  0.00238  0.00574    328.9
         Total DFT energy =    -1475.829297700970
@    5   -1475.82929770 -1.3D-06  0.00004  0.00001  0.00193  0.00395    378.1
         Total DFT energy =    -1475.829297800245
@    6   -1475.82929780 -9.9D-08  0.00001  0.00000  0.00067  0.00132    418.6
         Total DFT energy =    -1475.829297773421
@    7   -1475.82929777  2.7D-08  0.00001  0.00000  0.00006  0.00012    458.4
         Total DFT energy =    -1475.829297810711
@    8   -1475.82929781 -3.7D-08  0.00000  0.00000  0.00008  0.00022    498.5
         Total DFT energy =    -1475.829297811068
@    9   -1475.82929781 -3.6D-10  0.00000  0.00000  0.00004  0.00008    539.0
         Total DFT energy =    -1475.829297795328
@   10   -1475.82929780  1.6D-08  0.00000  0.00000  0.00003  0.00007    580.2
         Total DFT energy =    -1475.829297812909
@   11   -1475.82929781 -1.8D-08  0.00000  0.00000  0.00003  0.00007    620.2
         Total DFT energy =    -1475.829297797043
@   12   -1475.82929780  1.6D-08  0.00000  0.00000  0.00003  0.00006    660.5
         Total DFT energy =    -1475.829297813239
@   13   -1475.82929781 -1.6D-08  0.00000  0.00000  0.00003  0.00006    700.5
         Total DFT energy =    -1475.829297816687
@   14   -1475.82929782 -3.4D-09  0.00000  0.00000  0.00003  0.00006    740.7
         Total DFT energy =    -1475.829297814936
@   15   -1475.82929781  1.8D-09  0.00000  0.00000  0.00003  0.00006    781.0
         Total DFT energy =    -1475.829297818274
@   16   -1475.82929782 -3.3D-09  0.00000  0.00000  0.00003  0.00006    821.4
         Total DFT energy =    -1475.829297818517
@   17   -1475.82929782 -2.4D-10  0.00000  0.00000  0.00003  0.00006    861.3
@   17   -1475.82929782 -2.4D-10  0.00000  0.00000  0.00003  0.00006    861.3

 Output coordinates in angstroms (scale by  1.889725989 to convert to a.u.)

  No.       Tag          Charge          X              Y              Z
 ---- ---------------- ---------- -------------- -------------- --------------
    1 Cl                  17.0000    -4.11535908     0.00008285    -0.58829966
    2 Cl                  17.0000     4.11535908    -0.00008285    -0.58829966
    3 S                   16.0000     0.00000000     0.00000000     0.98175662
    4 C                    6.0000    -1.39605654    -0.00094868    -0.22121374
    5 C                    6.0000     1.39605654     0.00094868    -0.22121374
    6 C                    6.0000    -2.70468066     0.00163453     0.55505354
    7 C                    6.0000     2.70468066    -0.00163453     0.55505354
    8 H                    1.0000    -1.33329388    -0.89161869    -0.85353347
    9 H                    1.0000    -1.33169226     0.88741750    -0.85661064
   10 H                    1.0000     1.33329388     0.89161869    -0.85353347
   11 H                    1.0000     1.33169226    -0.88741750    -0.85661064
   12 H                    1.0000    -2.80591930    -0.88717500     1.17989459
   13 H                    1.0000    -2.80465887     0.89329220     1.17601091
   14 H                    1.0000     2.80591930     0.88717500     1.17989459
   15 H                    1.0000     2.80465887    -0.89329220     1.17601091

         Total DFT energy =    -1475.829297646343

                       DFT Final Molecular Orbital Analysis
                       ------------------------------------

 Vector    1  Occ=2.000000D+00  E=-1.015428D+02

 Vector   54  Occ=0.000000D+00  E= 1.673573D-01

 Vector   55  Occ=0.000000D+00  E= 2.168142D-01

 Vector   56  Occ=0.000000D+00  E= 3.463585D-01

 Vector   57  Occ=0.000000D+00  E= 3.545886D-01

 Vector   58  Occ=0.000000D+00  E= 3.719714D-01

 Vector   59  Occ=0.000000D+00  E= 3.837523D-01

 Vector   60  Occ=0.000000D+00  E= 3.938432D-01

 Vector   61  Occ=0.000000D+00  E= 3.965742D-01

 Vector   62  Occ=0.000000D+00  E= 4.283201D-01

 Vector   63  Occ=0.000000D+00  E= 4.547675D-01

 Vector   64  Occ=0.000000D+00  E= 4.583809D-01

 Vector   65  Occ=0.000000D+00  E= 4.595019D-01

 Vector   66  Occ=0.000000D+00  E= 4.649079D-01

 Vector   67  Occ=0.000000D+00  E= 4.801987D-01

 Vector   68  Occ=0.000000D+00  E= 4.857994D-01

 Vector   69  Occ=0.000000D+00  E= 5.044782D-01

 Vector   70  Occ=0.000000D+00  E= 5.491206D-01

 Vector   71  Occ=0.000000D+00  E= 5.590948D-01

 Vector   72  Occ=0.000000D+00  E= 5.606828D-01

 Vector   73  Occ=0.000000D+00  E= 5.721827D-01

 Vector   74  Occ=0.000000D+00  E= 6.077200D-01

 Vector   75  Occ=0.000000D+00  E= 6.140991D-01

 Vector   76  Occ=0.000000D+00  E= 6.219074D-01

 Vector   77  Occ=0.000000D+00  E= 6.804540D-01

 Vector   78  Occ=0.000000D+00  E= 7.752480D-01

 Vector   79  Occ=0.000000D+00  E= 8.205701D-01

 Vector   80  Occ=0.000000D+00  E= 8.250241D-01

 Vector   81  Occ=0.000000D+00  E= 8.284988D-01

 Vector   82  Occ=0.000000D+00  E= 8.372665D-01

 Vector   83  Occ=0.000000D+00  E= 8.499654D-01

 Vector   84  Occ=0.000000D+00  E= 8.543289D-01

 Vector   85  Occ=0.000000D+00  E= 8.553180D-01

 Vector   86  Occ=0.000000D+00  E= 8.603052D-01

 Vector   87  Occ=0.000000D+00  E= 8.646320D-01

 Vector   88  Occ=0.000000D+00  E= 8.895579D-01

 Vector   89  Occ=0.000000D+00  E= 8.996542D-01

 Vector   90  Occ=0.000000D+00  E= 8.998434D-01

 Vector   91  Occ=0.000000D+00  E= 9.016433D-01

 Vector   92  Occ=0.000000D+00  E= 9.039301D-01

 Vector   93  Occ=0.000000D+00  E= 9.079682D-01

 Vector   94  Occ=0.000000D+00  E= 9.247731D-01

 Vector   95  Occ=0.000000D+00  E= 9.595567D-01

 Vector   96  Occ=0.000000D+00  E= 9.809973D-01

 Vector   97  Occ=0.000000D+00  E= 9.882789D-01

 Vector   98  Occ=0.000000D+00  E= 1.009478D+00

 Vector   99  Occ=0.000000D+00  E= 1.046795D+00

 Vector  100  Occ=0.000000D+00  E= 1.078028D+00

 Vector  101  Occ=0.000000D+00  E= 1.139214D+00

 Vector  102  Occ=0.000000D+00  E= 1.147363D+00

 Vector  103  Occ=0.000000D+00  E= 1.201668D+00

 Vector  104  Occ=0.000000D+00  E= 1.268739D+00

 Vector  105  Occ=0.000000D+00  E= 1.478249D+00

 Vector  106  Occ=0.000000D+00  E= 1.502162D+00

 Vector  107  Occ=0.000000D+00  E= 1.514079D+00

 Vector  108  Occ=0.000000D+00  E= 1.566801D+00

 Vector  109  Occ=0.000000D+00  E= 1.580148D+00

 Vector  110  Occ=0.000000D+00  E= 1.603313D+00

 Vector  111  Occ=0.000000D+00  E= 1.876094D+00

 Vector  112  Occ=0.000000D+00  E= 1.905690D+00

 Vector  113  Occ=0.000000D+00  E= 1.946343D+00

 Vector  114  Occ=0.000000D+00  E= 1.948944D+00

 Vector  115  Occ=0.000000D+00  E= 1.952046D+00

 Vector  116  Occ=0.000000D+00  E= 1.952273D+00

 Vector  117  Occ=0.000000D+00  E= 2.158450D+00

 Vector  118  Occ=0.000000D+00  E= 2.208541D+00

 Vector  119  Occ=0.000000D+00  E= 2.230787D+00

 Vector  120  Occ=0.000000D+00  E= 2.231071D+00

 Vector  121  Occ=0.000000D+00  E= 2.233325D+00

 Vector  122  Occ=0.000000D+00  E= 2.245831D+00

 Vector  123  Occ=0.000000D+00  E= 2.271922D+00

 Vector  124  Occ=0.000000D+00  E= 2.309955D+00

 Vector  125  Occ=0.000000D+00  E= 2.569977D+00

 Vector  126  Occ=0.000000D+00  E= 2.596628D+00

 Vector  127  Occ=0.000000D+00  E= 3.902974D+00

 Vector  128  Occ=0.000000D+00  E= 4.081564D+00

 Vector  129  Occ=0.000000D+00  E= 4.092033D+00

 Vector  130  Occ=0.000000D+00  E= 4.261890D+00

 Vector  131  Occ=0.000000D+00  E= 4.262855D+00

 Vector  132  Occ=0.000000D+00  E= 4.353306D+00

 Vector  133  Occ=0.000000D+00  E= 4.369978D+00

     Multipole analysis of the density
     ---------------------------------

     L   x y z        total         alpha         beta         nuclear
     -   - - -        -----         -----         ----         -------
     0   0 0 0     -0.000000    -41.000000    -41.000000     82.000000

     1   1 0 0      0.000000      0.000000      0.000000      0.000000
     1   0 1 0      0.000000      0.000000      0.000000      0.000000
     1   0 0 1      0.274154     -0.811110     -0.811110      1.896374

     2   2 0 0    -59.524424  -1325.312440  -1325.312440   2591.100455
     2   1 1 0     -0.003725      0.117378      0.117378     -0.238480
     2   1 0 1     -0.000000     -0.000000     -0.000000      0.000000
     2   0 2 0    -47.503951    -35.063556    -35.063556     22.623162
     2   0 1 1     -0.000000     -0.000000     -0.000000      0.000000

 Zero-Point correction to Energy  =   73.384 kcal/mol  (  0.116945 au)
 Thermal correction to Energy     =   79.329 kcal/mol  (  0.126418 au)
 Thermal correction to Enthalpy   =   79.921 kcal/mol  (  0.127362 au)
 Total Entropy                    =  100.858 cal/mol-K
   - Translational                =   41.063 cal/mol-K (mol. weight = 157.9724)
   - Rotational                   =   29.054 cal/mol-K (symmetry #  =        2)
   - Vibrational                  =   30.741 cal/mol-K
   - Translational                  =    2.979 cal/mol-K
   - Rotational                     =    2.979 cal/mol-K
   - Vibrational                    =   24.040 cal/mol-K
 P.Frequency        0.00        0.00        0.00        0.00        0.00        0.00
 P.Frequency       28.16       43.67       60.65      110.07      111.35      203.52
 P.Frequency      213.62      324.12      331.73      702.84      716.98      761.80
 P.Frequency      784.59      792.41      795.47      987.74     1012.20     1041.92
 P.Frequency     1073.81     1152.66     1158.07     1249.85     1279.93     1310.43
 P.Frequency     1313.70     1351.92     1368.35     1515.48     1520.74     1520.99
 P.Frequency     1523.61     3076.01     3077.36     3114.64     3114.71     3127.43
 P.Frequency     3131.11     3176.48     3177.13

 Normal Eigenvalue ||           Projected Infra Red Intensities
  Mode   [cm**-1]  || [atomic units] [(debye/angs)**2] [(KM/mol)] [arbitrary]
 ------ ---------- || -------------- ----------------- ---------- -----------
    1        0.000 ||    0.000000           0.000         0.000       0.000
    2        0.000 ||    0.000005           0.000         0.005       0.006
    3        0.000 ||    0.000012           0.000         0.012       0.015
    4        0.000 ||    0.000157           0.004         0.153       0.200
    5        0.000 ||    0.000009           0.000         0.009       0.011
    6        0.000 ||    0.000099           0.002         0.096       0.125
    7       28.161 ||    0.000000           0.000         0.000       0.000
    8       43.673 ||    0.000000           0.000         0.000       0.000
    9       60.645 ||    0.001124           0.026         1.096       1.428
   10      110.071 ||    0.000000           0.000         0.000       0.000
   11      111.352 ||    0.011893           0.274        11.593      15.109
   12      203.517 ||    0.009905           0.229         9.656      12.585
   13      213.618 ||    0.000043           0.001         0.042       0.054
   14      324.118 ||    0.000580           0.013         0.566       0.737
   15      331.727 ||    0.003525           0.081         3.436       4.478
   16      702.836 ||    0.021181           0.489        20.648      26.910
   17      716.976 ||    0.093597           2.159        91.243     118.914
   18      761.797 ||    0.007317           0.169         7.133       9.296
   19      784.589 ||    0.000000           0.000         0.000       0.000
   20      792.411 ||    0.004285           0.099         4.177       5.444
   21      795.475 ||    0.007681           0.177         7.488       9.758
   22      987.739 ||    0.000000           0.000         0.000       0.000
   23     1012.200 ||    0.000136           0.003         0.133       0.173
   24     1041.919 ||    0.016423           0.379        16.010      20.866
   25     1073.813 ||    0.001634           0.038         1.593       2.076
   26     1152.659 ||    0.000000           0.000         0.000       0.000
   27     1158.069 ||    0.002458           0.057         2.396       3.123
   28     1249.850 ||    0.036632           0.845        35.710      46.540
   29     1279.927 ||    0.034321           0.792        33.458      43.605
   30     1310.429 ||    0.000000           0.000         0.000       0.000
   31     1313.702 ||    0.001232           0.028         1.201       1.565
   32     1351.917 ||    0.009018           0.208         8.791      11.457
   33     1368.353 ||    0.003562           0.082         3.472       4.526
   34     1515.485 ||    0.009443           0.218         9.206      11.998
   35     1520.736 ||    0.001184           0.027         1.155       1.505
   36     1520.990 ||    0.006855           0.158         6.683       8.710
   37     1523.615 ||    0.000573           0.013         0.559       0.729
   38     3076.014 ||    0.020047           0.462        19.542      25.469
   39     3077.359 ||    0.001544           0.036         1.506       1.962
   40     3114.644 ||    0.023662           0.546        23.067      30.063
   41     3114.710 ||    0.000581           0.013         0.567       0.739
   42     3127.433 ||    0.010241           0.236         9.983      13.011
   43     3131.105 ||    0.000000           0.000         0.000       0.000
   44     3176.479 ||    0.013231           0.305        12.899      16.810
   45     3177.134 ||    0.000000           0.000         0.000       0.000
 ----------------------------------------------------------------------------

 Total times  cpu:     4530.2s     wall:     4536.6s
