============================== echo of input deck ==============================
echo

start molecule

print low

title "Hg@Quartz ecp"
charge 0

geometry units angstroms print xyz autosym
  load format xyz HgQgeom.xyz
end

basis
 * library crenbl_ecp
end

ecp
  Si library crenbl_ecp
  Hg library crenbl_ecp
end

dft
  xc revpbe cpbe96
  disp vdw 4
  maxiter 100
end

driver
  maxiter 999
  xyz HgQgeomconv
end

task dft optimize

#task dft frequencies

================================================================================

         Total DFT energy =    -5099.760114851386
@ Step       Energy      Delta E   Gmax     Grms     Xrms     Xmax   Walltime
@ ---- ---------------- -------- -------- -------- -------- -------- --------
@    0   -5099.76011485  0.0D+00  0.00110  0.00015  0.00000  0.00000    367.7
         Total DFT energy =    -5099.758897556589
         Total DFT energy =    -5099.760180714660
@    1   -5099.76018071 -6.6D-05  0.00092  0.00017  0.00367  0.01287    781.9
         Total DFT energy =    -5099.758549477843
         Total DFT energy =    -5099.759185564966
@    2   -5099.75918556  1.0D-03  0.00083  0.00015  0.00517  0.01766   1131.3
         Total DFT energy =    -5099.760262795346
         Total DFT energy =    -5099.759589415153
@    3   -5099.75958942 -4.0D-04  0.00947  0.00136  0.03263  0.19471   1484.1
         Total DFT energy =    -5099.759743346087
         Total DFT energy =    -5099.760082215813
@    4   -5099.76008222 -4.9D-04  0.00369  0.00071  0.02112  0.09443   1852.4
         Total DFT energy =    -5099.747877449405
         Total DFT energy =    -5099.759256222787
@    5   -5099.75925622  8.3D-04  0.00359  0.00050  0.01403  0.08635   2286.7
         Total DFT energy =    -5099.758588568209
         Total DFT energy =    -5099.760387548085
@    6   -5099.76038755 -1.1D-03  0.00275  0.00044  0.01764  0.08139   2634.4
         Total DFT energy =    -5099.757125179542
         Total DFT energy =    -5099.760465547319
@    7   -5099.76046555 -7.8D-05  0.00187  0.00025  0.00794  0.04975   2996.8
         Total DFT energy =    -5099.759907821615
         Total DFT energy =    -5099.760612085443
@    8   -5099.76061209 -1.5D-04  0.00232  0.00025  0.00484  0.02255   3366.4
         Total DFT energy =    -5099.759150077134
         Total DFT energy =    -5099.760634354301
@    9   -5099.76063435 -2.2D-05  0.00152  0.00019  0.00219  0.01136   3751.6
         Total DFT energy =    -5099.760164358282
         Total DFT energy =    -5099.760555254426
@   10   -5099.76055525  7.9D-05  0.00137  0.00020  0.00563  0.02190   4152.1
         Total DFT energy =    -5099.759537553808
         Total DFT energy =    -5099.760571050774
@   11   -5099.76057105 -1.6D-05  0.00118  0.00017  0.00144  0.00853   4615.3
         Total DFT energy =    -5099.759796773418
         Total DFT energy =    -5099.760599214354
@   12   -5099.76059921 -2.8D-05  0.00153  0.00023  0.00542  0.02897   4997.0
         Total DFT energy =    -5099.759436642486
         Total DFT energy =    -5099.760619826393
@   13   -5099.76061983 -2.1D-05  0.00120  0.00021  0.00198  0.00830   5400.5
         Total DFT energy =    -5099.759301675640
         Total DFT energy =    -5099.760638863128
@   14   -5099.76063886 -1.9D-05  0.00123  0.00019  0.00218  0.00881   5785.0
         Total DFT energy =    -5099.759569223203
         Total DFT energy =    -5099.760669282368
@   15   -5099.76066928 -3.0D-05  0.00120  0.00016  0.00211  0.00995   6169.8
         Total DFT energy =    -5099.760709715851
         Total DFT energy =    -5099.760745042571
@   16   -5099.76074504 -7.6D-05  0.00177  0.00024  0.01121  0.05762   6528.0
         Total DFT energy =    -5099.759633441718
         Total DFT energy =    -5099.760763592414
@   17   -5099.76076359 -1.9D-05  0.00173  0.00023  0.00171  0.00799   6880.4
         Total DFT energy =    -5099.759634947637
         Total DFT energy =    -5099.760776772033
@   18   -5099.76077677 -1.3D-05  0.00169  0.00022  0.00167  0.00576   7319.1
         Total DFT energy =    -5099.759698015590
         Total DFT energy =    -5099.759705609165
@   19   -5099.75970561  1.1D-03  0.00155  0.00020  0.00158  0.00672   7676.9
         Total DFT energy =    -5099.759787954194
         Total DFT energy =    -5099.759789145879
@   20   -5099.75978915 -8.4D-05  0.00134  0.00023  0.01683  0.07576   8052.1
         Total DFT energy =    -5099.759711081722
         Total DFT energy =    -5099.759808093273
@   21   -5099.75980809 -1.9D-05  0.00092  0.00018  0.00924  0.03063   8429.7
         Total DFT energy =    -5099.760910017339
         Total DFT energy =    -5099.760772812966
@   22   -5099.76077281 -9.6D-04  0.00193  0.00035  0.02099  0.06548   8826.1
         Total DFT energy =    -5099.760939473013
         Total DFT energy =  -5099.760939473013
@   23   -5099.76093947 -1.7D-04  0.00112  0.00020  0.01450  0.06599   9036.4
         Total DFT energy =    -5099.760853576168
         Total DFT energy =    -5099.760996542398
@   24   -5099.76099654 -5.7D-05  0.00068  0.00011  0.00746  0.03037   9429.8
         Total DFT energy =    -5099.759942153574
         Total DFT energy =    -5099.760999379851
@   25   -5099.76099938 -2.8D-06  0.00065  0.00011  0.00030  0.00163   9814.3
         Total DFT energy =    -5099.761074468657
         Total DFT energy =    -5099.761085475548
@   26   -5099.76108548 -8.6D-05  0.00147  0.00018  0.01352  0.06469  10187.5
         Total DFT energy =    -5099.760013654723
         Total DFT energy =    -5099.761099232612
@   27   -5099.76109923 -1.4D-05  0.00135  0.00016  0.00130  0.00566  10567.6
         Total DFT energy =    -5099.761206536503
         Total DFT energy =  -5099.761206536503
@   28   -5099.76120654 -1.1D-04  0.00121  0.00019  0.01486  0.07821  10797.4
         Total DFT energy =    -5099.761188684064
         Total DFT energy =    -5099.761241402641
@   29   -5099.76124140 -3.5D-05  0.00113  0.00016  0.00957  0.03866  11169.2
         Total DFT energy =    -5099.761319479749
         Total DFT energy =    -5099.761321508591
@   30   -5099.76132151 -8.0D-05  0.00077  0.00015  0.01380  0.07198  11472.6
         Total DFT energy =    -5099.761390410527
         Total DFT energy =    -5099.761391906599
@   31   -5099.76139191 -7.0D-05  0.00058  0.00011  0.01199  0.05963  11772.4
         Total DFT energy =    -5099.761425676588
         Total DFT energy =    -5099.761428782305
@   32   -5099.76142878 -3.7D-05  0.00079  0.00010  0.00796  0.03199  12077.6
         Total DFT energy =    -5099.762047027220
         Total DFT energy =    -5099.762047234915
@   64   -5099.76204723 -6.4D-06  0.00010  0.00002  0.00447  0.03551  21954.8
         Total DFT energy =    -5099.762044309966
         Total DFT energy =  -5099.762044309966
@   65   -5099.76204431  2.9D-06  0.00012  0.00002  0.00211  0.01333  22141.3
         Total DFT energy =    -5099.762044986554
         Total DFT energy =  -5099.762044986554
@   66   -5099.76204499 -6.8D-07  0.00012  0.00002  0.00125  0.00502  22321.8
         Total DFT energy =    -5099.762047718457
         Total DFT energy =  -5099.762047718457
@   67   -5099.76204772 -2.7D-06  0.00010  0.00002  0.00170  0.00675  22513.7
         Total DFT energy =    -5099.762051798505
         Total DFT energy =  -5099.762051798505
@   68   -5099.76205180 -4.1D-06  0.00010  0.00002  0.00128  0.00573  22695.5
         Total DFT energy =    -5099.762056192249
         Total DFT energy =  -5099.762056192249
@   69   -5099.76205619 -4.4D-06  0.00009  0.00002  0.00135  0.00563  22884.5
         Total DFT energy =    -5099.762061127421
         Total DFT energy =  -5099.762061127421
@   70   -5099.76206113 -4.9D-06  0.00009  0.00002  0.00146  0.00687  23067.8
         Total DFT energy =    -5099.762062653539
         Total DFT energy =  -5099.762062653539
@   71   -5099.76206265 -1.5D-06  0.00007  0.00002  0.00123  0.00606  23260.7
         Total DFT energy =    -5099.762062305308
         Total DFT energy =  -5099.762062305308
@   72   -5099.76206231  3.5D-07  0.00008  0.00001  0.00132  0.00586  23448.5
         Total DFT energy =    -5099.762061995290
         Total DFT energy =  -5099.762061995290
@   73   -5099.76206200  3.1D-07  0.00011  0.00001  0.00102  0.00484  23632.2
         Total DFT energy =    -5099.762060215246
         Total DFT energy =  -5099.762060215246
@   74   -5099.76206022  1.8D-06  0.00008  0.00001  0.00123  0.00600  23814.9
         Total DFT energy =    -5099.762061984678
         Total DFT energy =  -5099.762061984678
@   75   -5099.76206198 -1.8D-06  0.00006  0.00001  0.00083  0.00427  23994.6
         Total DFT energy =    -5099.762062176855
         Total DFT energy =  -5099.762062176855
@   76   -5099.76206218 -1.9D-07  0.00006  0.00001  0.00104  0.00561  24167.9
         Total DFT energy =    -5099.762062581027
         Total DFT energy =  -5099.762062581027
@   77   -5099.76206258 -4.0D-07  0.00005  0.00001  0.00070  0.00326  24349.9
         Total DFT energy =    -5099.762063909020
         Total DFT energy =  -5099.762063909020
@   78   -5099.76206391 -1.3D-06  0.00006  0.00001  0.00081  0.00391  24543.7
         Total DFT energy =    -5099.762063234419
         Total DFT energy =  -5099.762063234419
@   79   -5099.76206323  6.7D-07  0.00006  0.00001  0.00083  0.00366  24734.0
         Total DFT energy =    -5099.762063490776
         Total DFT energy =  -5099.762063490776
@   80   -5099.76206349 -2.6D-07  0.00004  0.00001  0.00075  0.00501  24902.2
         Total DFT energy =    -5099.762062712714
         Total DFT energy =  -5099.762062712714
@   81   -5099.76206271  7.8D-07  0.00004  0.00001  0.00090  0.00390  25073.5
         Total DFT energy =    -5099.762063668808
         Total DFT energy =  -5099.762063668808
@   82   -5099.76206367 -9.6D-07  0.00005  0.00001  0.00083  0.00347  25250.8
         Total DFT energy =    -5099.762064124789
         Total DFT energy =  -5099.762064124789
@   83   -5099.76206412 -4.6D-07  0.00005  0.00001  0.00088  0.00413  25440.1
         Total DFT energy =    -5099.762066200972
         Total DFT energy =  -5099.762066200972
@   84   -5099.76206620 -2.1D-06  0.00005  0.00001  0.00082  0.00432  25617.0
         Total DFT energy =    -5099.762067217100
         Total DFT energy =  -5099.762067217100
@   85   -5099.76206722 -1.0D-06  0.00006  0.00001  0.00101  0.00694  25795.1
         Total DFT energy =    -5099.762068573727
         Total DFT energy =  -5099.762068573727
@   86   -5099.76206857 -1.4D-06  0.00005  0.00001  0.00070  0.00368  25974.8
         Total DFT energy =    -5099.762069122360
         Total DFT energy =  -5099.762069122360
@   87   -5099.76206912 -5.5D-07  0.00004  0.00001  0.00070  0.00512  26153.0
         Total DFT energy =    -5099.762069275534
         Total DFT energy =  -5099.762069275534
@   88   -5099.76206928 -1.5D-07  0.00003  0.00001  0.00061  0.00376  26331.5
         Total DFT energy =    -5099.762070200686
         Total DFT energy =  -5099.762070200686
@   89   -5099.76207020 -9.3D-07  0.00003  0.00001  0.00070  0.00305  26518.5
         Total DFT energy =    -5099.762070715566
         Total DFT energy =  -5099.762070715566
@   90   -5099.76207072 -5.1D-07  0.00003  0.00001  0.00050  0.00262  26676.5
         Total DFT energy =    -5099.762070167431
         Total DFT energy =  -5099.762070167431
@   91   -5099.76207017  5.5D-07  0.00004  0.00001  0.00051  0.00278  26829.8
         Total DFT energy =    -5099.762070957790
         Total DFT energy =  -5099.762070957790
@   92   -5099.76207096 -7.9D-07  0.00012  0.00001  0.00081  0.00643  27033.2
         Total DFT energy =    -5099.762071572211
         Total DFT energy =  -5099.762071572211
@   93   -5099.76207157 -6.1D-07  0.00009  0.00001  0.00049  0.00377  27197.7
         Total DFT energy =    -5099.762066606498
         Total DFT energy =  -5099.762066606498
@   94   -5099.76206661  5.0D-06  0.00030  0.00002  0.00182  0.01239  27434.5
         Total DFT energy =    -5099.762067026855
         Total DFT energy =  -5099.762067026855
@   95   -5099.76206703 -4.2D-07  0.00016  0.00001  0.00036  0.00189  27588.6
         Total DFT energy =    -5099.762061134883
         Total DFT energy =    -5099.762066913710
@   96   -5099.76206691  1.1D-07  0.00004  0.00001  0.00010  0.00050  27904.3
@   96   -5099.76206691  1.1D-07  0.00004  0.00001  0.00010  0.00050  27904.3

 Output coordinates in angstroms (scale by  1.889725989 to convert to a.u.)

  No.       Tag          Charge          X              Y              Z
 ---- ---------------- ---------- -------------- -------------- --------------
    1 O                    8.0000     4.64064368     1.80808419     3.45653529
    2 H                    1.0000    -1.81520763    -5.80397109     0.72756330
    3 H                    1.0000     4.58881256     9.72210774    -3.53181876
    4 Si                  14.0000    -1.88672982    -8.73671174    -2.45842476
    5 Si                  14.0000     0.75225810    -7.57306432     1.03243694
    6 Si                  14.0000     2.53822729    -3.76474676     4.66527280
    7 H                    1.0000     1.78525357     6.16041618     0.57220182
    8 Si                  14.0000    -3.60971683    -4.98446788    -0.82811833
    9 Si                  14.0000     0.23076983    -2.31377208     0.88962106
   10 Si                  14.0000     4.18328111     0.63262357     2.38888297
   11 H                    1.0000    -1.76763160     3.20822737     3.08414797
   12 Si                  14.0000    -4.44022919    -0.49490529     2.00182665
   13 Si                  14.0000    -0.39201274     2.47909215     0.80894906
   14 Si                  14.0000     3.82055865     4.58749897    -0.82150578
   15 H                    1.0000    -1.62639270    -7.86339178     0.13930097
   16 Si                  14.0000    -3.73557214     4.57035755     3.84223529
   17 Si                  14.0000    -0.47274432     7.13476997     1.12706503
   18 Si                  14.0000     2.33731672     8.42321413    -3.23793254
   19 O                    8.0000    -2.77486248    -0.58127372     2.20462795
   20 O                    8.0000     1.92643698    -5.55046808    -4.58791696
   21 O                    8.0000     6.24904111    -4.44343847    -0.65800383
   22 O                    8.0000    -0.78776525     6.29454172     2.51773500
   23 O                    8.0000     1.09171345     2.72771726     1.54412841
   24 O                    8.0000    -2.01915112    -2.06871927    -4.06741751
   25 O                    8.0000     3.37289962    -0.94655448    -3.84571106
   26 O                    8.0000     1.95172137     8.22898589    -1.64366926
   27 O                    8.0000     4.90028350     5.81047147    -0.54517336
   28 O                    8.0000    -4.45225235     2.42673092    -2.09870363
   29 O                    8.0000    -0.85558606     2.57694283    -3.73442420
   30 H                    1.0000    -2.11828967    -1.28743173     2.02869390
   31 H                    1.0000    -4.24956660     4.41989597     6.39820523
   32 O                    8.0000     2.62992545     4.57732456     0.34571192
   33 O                    8.0000     0.91737958    -1.66991570     2.26632472
   34 O                    8.0000    -2.90906644    -5.40014854    -5.03381115
   35 O                    8.0000    -4.97376461     1.06808741     2.04121339
   36 Si                  14.0000    -4.84889583     3.70047644    -1.11008731
   37 Si                  14.0000    -0.69222062     4.22429780    -3.77910748
   38 O                    8.0000     1.49644121    -4.86426836    -1.98296058
   39 O                    8.0000     5.15210460    -3.15180468     1.49197062
   40 H                    1.0000     5.42413905     6.59261460    -0.39176539
   41 H                    1.0000    -3.63070335    -7.80836148    -0.83484872
   42 Si                  14.0000    -2.04694282    -5.71559805    -3.66187476
   43 O                    8.0000    -4.78681597     3.60662359     2.96918380
   44 O                    8.0000    -1.44964895     6.41065650    -0.04564505
   45 O                    8.0000    -2.21037396     3.96618873     3.50658693
   46 Si                  14.0000     1.94458802    -4.83843015    -0.38359531
   47 O                    8.0000    -1.26240361     4.82461410    -2.33113798
   48 H                    1.0000    -1.13213049     5.57604872     3.07040679
   49 H                    1.0000     3.90217212     4.42172596    -5.79939638
   50 Si                  14.0000     5.12288571    -2.48512795     3.01557588
   51 O                    8.0000    -3.45146398     4.58004006    -0.84219340
   52 O                    8.0000     1.10347634     6.86314767     0.63266031
   53 O                    8.0000     1.52131144    -6.27542884     0.34537773
   54 O                    8.0000     3.13754277     4.78904769    -2.32406223
   55 O                    8.0000    -6.25998258    -1.78600118    -1.66417059
   56 O                    8.0000     3.77573873     9.23580472    -3.43260789
   57 O                    8.0000     3.89086976    -3.18660449     3.89290274
   58 H                    1.0000    -2.97931466   -10.70381252    -3.77295416
   59 O                    8.0000    -1.14635348    -0.14573855    -2.41658556
   60 H                    1.0000     4.86653286     2.51643039     4.05449813
   61 H                    1.0000    -1.96519101     0.98098794     2.14260793
   62 O                    8.0000    -3.82290195     6.14021322     3.32585167
   63 O                    8.0000     4.17618669     0.62076701    -1.77391312
   64 H                    1.0000    -6.67336904     5.23913195    -2.16693908
   65 O                    8.0000    -4.30133515    -3.48660892    -0.78522205
   66 O                    8.0000    -0.78158407     8.75463718     1.25440956
   67 H                    1.0000    -2.00406744     5.30390252    -5.76160424
   68 O                    8.0000     1.13642418     9.22069420    -4.06584054
   69 H                    1.0000     7.41543991    -2.76873086     4.22582123
   70 H                    1.0000     7.62560655     1.26222427    -1.19018503
   71 H                    1.0000    -8.15490386     2.59217892     2.51230382
   72 H                    1.0000     2.40108924    -6.14558158    -5.16225290
   73 H                    1.0000     6.99246024    -4.95924019    -0.95783458
   74 O                    8.0000    -2.87568476    -5.22425016    -2.29625724
   75 O                    8.0000     1.06637207    -3.64402153     0.37142511
   76 H                    1.0000    -1.51186758    -2.81559625    -4.39073766
   77 H                    1.0000     3.87903606    -1.64195020    -4.26367612
   78 O                    8.0000     3.36360949     4.49032132    -5.01297769
   79 O                    8.0000     0.91227122     4.65593833    -3.88568376
   80 O                    8.0000    -4.07785050     4.46234991     5.46175213
   81 O                    8.0000    -0.86699622    -7.50882572     0.65313077
   82 H                    1.0000    -5.65858287    -6.51081493    -0.44508627
   83 O                    8.0000     4.74138196    -0.87283230     2.82438146
   84 O                    8.0000     1.32266076    -2.97625501    -3.89085282
   85 O                    8.0000     4.77203868    -2.14705826    -0.97381826
   86 O                    8.0000     1.85467600    -4.97394094     3.77459557
   87 H                    1.0000    -4.13405368     1.70729548    -2.65085342
   88 O                    8.0000    -3.16295480     0.45449972    -4.09614929
   89 O                    8.0000     3.08854330     1.77762768    -3.96192516
   90 H                    1.0000     1.11664220    -1.90011981     3.20319785
   91 O                    8.0000    -0.56775908    -4.95703728    -3.71978269
   92 O                    8.0000    -6.01789359     4.65347641    -1.79857626
   93 O                    8.0000    -1.53590993     4.87159216    -5.05293702
   94 O                    8.0000    -4.77667795    -6.17804133    -0.60885080
   95 O                    8.0000     3.54480907    -4.43843777    -0.24983283
   96 H                    1.0000    -0.96806761     1.64978831    -3.51631849
   97 O                    8.0000    -5.36333817     3.13910230     0.37256620
   98 O                    8.0000    -1.33690920    -2.77637229     1.24304456
   99 H                    1.0000     1.72137666     2.10873664     1.98152288
  100 H                    1.0000    -3.40872225    -5.17783707    -5.81575370
  101 O                    8.0000     6.57297224    -2.67456295     3.78929529
  102 H                    1.0000     1.65583533     7.89584839    -0.77459313
  103 O                    8.0000    -4.70840901    -1.15104389     0.48986335
  104 O                    8.0000    -5.20644475    -1.40058954     3.15989515
  105 H                    1.0000    -7.12461634    -1.63833133    -2.03894665
  106 Si                  14.0000    -5.61099431     2.61088427     1.92859587
  107 O                    8.0000    -0.12417563     1.38985651    -0.42095478
  108 O                    8.0000     0.23779615    -1.19811785    -0.33314311
  109 O                    8.0000    -3.61758134    -1.23338503    -2.02651486
  110 Si                  14.0000    -1.84266092     4.98384094    -0.78410378
  111 H                    1.0000     1.54480493    -5.70519933     3.22916970
  112 H                    1.0000     3.13581942     2.63371176    -4.41047657
  113 H                    1.0000     1.72702999    -2.10023226    -3.91713035
  114 Si                  14.0000     2.47026589     5.20777055    -3.78715537
  115 O                    8.0000    -1.06068171     3.82633431     0.14598830
  116 O                    8.0000    -2.60871115    -9.97850950    -3.27637860
  117 O                    8.0000     2.51179352     0.53181013     2.31180334
  118 H                    1.0000     2.03468784     4.00278469     0.88763519
  119 O                    8.0000     4.56380465     3.09096964    -0.79063839
  120 H                    1.0000    -5.64821160    -1.88197320     3.85446447
  121 H                    1.0000     0.94746302    -7.77035602     3.61470259
  122 Si                  14.0000    -4.75157040    -1.88572363    -0.99302138
  123 H                    1.0000    -1.93655897    -3.53223533     1.07893915
  124 H                    1.0000     0.95767261    -1.83395403     5.31797239
  125 O                    8.0000    -0.40018626    -9.14621700    -1.87252892
  126 Si                  14.0000     0.14608472     0.08373104    -1.39015872
  127 O                    8.0000     1.54849000     0.24836493    -2.25862850
  128 O                    8.0000    -2.82408327    -8.26023872    -1.12708153
  129 O                    8.0000     1.40253638    -9.00039001     0.44039085
  130 Si                  14.0000     5.08400407     1.51881983    -0.67523190
  131 H                    1.0000     1.81036450    -0.15583959     2.25453870
  132 O                    8.0000    -7.22687866     2.57008386     2.29585010
  133 O                    8.0000    -2.45925527    -5.16319334     0.37431320
  134 O                    8.0000     0.95870589    -7.52990386     2.68879641
  135 O                    8.0000     6.69278015     1.35617944    -1.01525502
  136 O                    8.0000    -1.83104521    -7.34896281    -3.38742953
  137 O                    8.0000     2.91209714    -4.27978548     6.19837518
  138 O                    8.0000     1.46020390    -2.46981205     4.80181441
  139 Si                  14.0000     1.05590040    -4.57427864    -3.56828841
  140 Si                  14.0000    -2.50619880    -0.76740084    -3.17335137
  141 H                    1.0000     0.37296313    -9.24221053    -1.30703698
  142 H                    1.0000     1.97865810    -9.75950991     0.35980757
  143 Si                  14.0000     4.96219056    -3.55141001    -0.11772639
  144 Si                  14.0000     3.03024260     0.44986357    -2.99630831
  145 H                    1.0000     3.17641541    -4.57631859     7.06541586
  146 O                    8.0000     2.49483690     6.86351888    -3.85741670
  147 O                    8.0000    -1.41686980     1.76993404     1.91747023
  148 H                    1.0000     4.61172659    -1.26147955    -1.32407644
  149 O                    8.0000     4.73759183     0.99926160     0.86313984
  150 H                    1.0000    -3.32168224     1.10814045    -4.77640733
  151 H                    1.0000     0.40459055     9.65013584    -4.49897272
  152 H                    1.0000    -0.89068342     9.70137849     1.27205261
  153 H                    1.0000    -3.68244060     7.00425231     2.94545476
  154 Hg                  80.0000    -0.20617961     0.87956439     4.94264290

 Total times  cpu:    24960.7s     wall:    27905.2s
