 Output coordinates in a.u. (scale by  1.000000000 to convert to a.u.)

  No.       Tag          Charge          X              Y              Z
 ---- ---------------- ---------- -------------- -------------- --------------
    1 O                    8.0000     0.00000000     0.00000000     0.22143053
    2 H                    1.0000    -1.43042809     0.00000000    -0.88572213
    3 H                    1.0000     1.43042809     0.00000000    -0.88572213

         Total SCF energy =    -76.027139146410

 Vector    2  Occ=2.000000D+00  E=-1.336979D+00  Symmetry=a1

 Vector    3  Occ=2.000000D+00  E=-6.996405D-01  Symmetry=b1

 Vector    4  Occ=2.000000D+00  E=-5.668747D-01  Symmetry=a1

 Vector    5  Occ=2.000000D+00  E=-4.935158D-01  Symmetry=b2

 Vector    6  Occ=0.000000D+00  E= 1.833834D-01  Symmetry=a1

 Vector    7  Occ=0.000000D+00  E= 2.561219D-01  Symmetry=b1

 Vector    8  Occ=0.000000D+00  E= 7.891983D-01  Symmetry=b1

 Vector    9  Occ=0.000000D+00  E= 8.542744D-01  Symmetry=a1

 Vector   10  Occ=0.000000D+00  E= 1.158991D+00  Symmetry=a1

 Vector   11  Occ=0.000000D+00  E= 1.200044D+00  Symmetry=b2

 Vector   12  Occ=0.000000D+00  E= 1.253024D+00  Symmetry=b1

 Vector   13  Occ=0.000000D+00  E= 1.423576D+00  Symmetry=a1

 Vector   14  Occ=0.000000D+00  E= 1.476108D+00  Symmetry=a2

 Vector   15  Occ=0.000000D+00  E= 1.674547D+00  Symmetry=b2

       Multipole analysis of the density wrt the origin
       ------------------------------------------------

     L   x y z        total         open         nuclear
     -   - - -        -----         ----         -------
     0   0 0 0     -0.000000      0.000000     10.000000

     1   1 0 0     -0.000000      0.000000      0.000000
     1   0 1 0     -0.000000      0.000000      0.000000
     1   0 0 1     -0.809081      0.000000      0.000000

     2   2 0 0     -3.071516      0.000000      4.092249
     2   1 1 0     -0.000000      0.000000      0.000000
     2   1 0 1      0.000000      0.000000      0.000000
     2   0 2 0     -5.229237      0.000000      0.000000
     2   0 1 1     -0.000000      0.000000      0.000000

 Total times  cpu:        0.0s     wall:        0.1s
