============================== echo of input deck ==============================
echo

start molecule

memory total 180 gb

print low

title "Bi@Quartz ecp"
charge 0

geometry units angstroms print xyz autosym
  load format xyz BiQgeom.xyz
end

basis
 * library crenbl_ecp
end

ecp
  Si library crenbl_ecp
  Bi library crenbl_ecp
end

dft
  rodft
  mult 4
  xc revpbe cpbe96
  disp vdw 4
  maxiter 100
end

driver
  maxiter 999
  xyz BiQgeomconv
end

task dft optimize

#task dft frequencies

================================================================================

         Total DFT energy =    -5018.371266714470
@ Step       Energy      Delta E   Gmax     Grms     Xrms     Xmax   Walltime
@ ---- ---------------- -------- -------- -------- -------- -------- --------
@    0   -5018.37126671  0.0D+00  0.00359  0.00026  0.00000  0.00000    321.4
         Total DFT energy =    -5018.333619020458
         Total DFT energy =    -5018.371234962417
@    1   -5018.37123496  3.2D-05  0.00235  0.00016  0.00264  0.03517    704.1
         Total DFT energy =    -5018.370907036920
         Total DFT energy =    -5018.371228037196
@    2   -5018.37122804  6.9D-06  0.00167  0.00020  0.00495  0.03362   1037.9
         Total DFT energy =    -5018.371206329418
         Total DFT energy =    -5018.371230045748
@    3   -5018.37123005 -2.0D-06  0.00182  0.00015  0.00216  0.00785   1315.0
         Total DFT energy =    -5018.371192858122
         Total DFT energy =    -5018.371243451022
@    4   -5018.37124345 -1.3D-05  0.00144  0.00017  0.00301  0.01928   1592.4
         Total DFT energy =    -5018.370801466944
         Total DFT energy =    -5018.371258246047
@    5   -5018.37125825 -1.5D-05  0.00091  0.00013  0.00421  0.01824   1875.5
         Total DFT energy =    -5018.371092874353
         Total DFT energy =    -5018.371272324120
@    6   -5018.37127232 -1.4D-05  0.00104  0.00013  0.00298  0.01294   2203.1
         Total DFT energy =    -5018.371059943124
         Total DFT energy =    -5018.371293854270
@    7   -5018.37129385 -2.2D-05  0.00053  0.00009  0.00358  0.01593   2511.8
         Total DFT energy =    -5018.371160285695
         Total DFT energy =    -5018.371303498931
@    8   -5018.37130350 -9.6D-06  0.00040  0.00008  0.00190  0.01111   2814.3
         Total DFT energy =    -5018.371282058239
         Total DFT energy =    -5018.371313554575
@    9   -5018.37131355 -1.0D-05  0.00066  0.00007  0.00333  0.01179   3136.1
         Total DFT energy =    -5018.371200821819
         Total DFT energy =    -5018.371315650744
@   10   -5018.37131565 -2.1D-06  0.00048  0.00007  0.00174  0.00716   3455.8
         Total DFT energy =    -5018.371256582956
         Total DFT energy =    -5018.371335006542
@   11   -5018.37133501 -1.9D-05  0.00058  0.00010  0.00357  0.01497   3773.8
         Total DFT energy =    -5018.371278081451
         Total DFT energy =    -5018.371335392774
@   12   -5018.37133539 -3.9D-07  0.00063  0.00008  0.00154  0.00640   4061.0
         Total DFT energy =    -5018.371291089065
         Total DFT energy =    -5018.371340344343
@   13   -5018.37134034 -5.0D-06  0.00036  0.00006  0.00229  0.01127   4385.9
         Total DFT energy =    -5018.371353915593
         Total DFT energy =    -5018.371347252952
@   14   -5018.37134725 -6.9D-06  0.00082  0.00016  0.00651  0.02668   4752.9
         Total DFT energy =    -5018.371337355827
         Total DFT energy =    -5018.371356745856
@   15   -5018.37135675 -9.5D-06  0.00074  0.00012  0.00343  0.01415   5048.1
         Total DFT energy =    -5018.371250256333
         Total DFT energy =    -5018.371361712381
@   16   -5018.37136171 -5.0D-06  0.00064  0.00007  0.00254  0.00969   5358.3
         Total DFT energy =    -5018.371326879016
         Total DFT energy =    -5018.371360577861
@   17   -5018.37136058  1.1D-06  0.00030  0.00003  0.00097  0.00344   5650.2
         Total DFT energy =    -5018.371369028178
         Total DFT energy =    -5018.371366809703
@   18   -5018.37136681 -6.2D-06  0.00086  0.00011  0.00579  0.01786   5937.7
         Total DFT energy =    -5018.371367588762
         Total DFT energy =  -5018.371367588762
@   19   -5018.37136759 -7.8D-07  0.00030  0.00006  0.00542  0.02284   6110.9
         Total DFT energy =    -5018.371353812828
         Total DFT energy =    -5018.371368981643
@   20   -5018.37136898 -1.4D-06  0.00030  0.00003  0.00180  0.00750   6399.6
         Total DFT energy =    -5018.371369132993
         Total DFT energy =  -5018.371369132993
@   21   -5018.37136913 -1.5D-07  0.00035  0.00006  0.00255  0.00725   6577.5
         Total DFT energy =    -5018.371374703448
         Total DFT energy =    -5018.371374706903
@   22   -5018.37137471 -5.6D-06  0.00028  0.00004  0.00297  0.01184   6849.3
         Total DFT energy =    -5018.371369821237
         Total DFT energy =  -5018.371369821237
@   23   -5018.37136982  4.9D-06  0.00049  0.00010  0.00539  0.01713   7036.3
         Total DFT energy =    -5018.371376436852
         Total DFT energy =    -5018.371377905751
@   24   -5018.37137791 -8.1D-06  0.00017  0.00003  0.00266  0.01465   7329.3
         Total DFT energy =    -5018.371365060775
         Total DFT energy =    -5018.371375537609
@   25   -5018.37137554  2.4D-06  0.00008  0.00002  0.00061  0.00212   7611.9
         Total DFT energy =    -5018.371381863623
         Total DFT energy =    -5018.371383700384
@   26   -5018.37138370 -8.2D-06  0.00033  0.00006  0.00368  0.01484   7878.6
         Total DFT energy =    -5018.371378156478
         Total DFT energy =    -5018.371383316283
@   27   -5018.37138332  3.8D-07  0.00019  0.00005  0.00098  0.00502   8181.7
         Total DFT energy =    -5018.371373464462
         Total DFT energy =    -5018.371382874785
@   28   -5018.37138287  4.4D-07  0.00015  0.00003  0.00117  0.00432   8458.1
         Total DFT energy =    -5018.371376736539
         Total DFT energy =    -5018.371382111348
@   29   -5018.37138211  7.6D-07  0.00008  0.00002  0.00051  0.00237   8722.6
         Total DFT energy =    -5018.371378144813
         Total DFT energy =  -5018.371378144813
@   30   -5018.37137814  4.0D-06  0.00020  0.00003  0.00246  0.01132   8897.0
         Total DFT energy =    -5018.371380100391
         Total DFT energy =  -5018.371380100391
@   31   -5018.37138010 -2.0D-06  0.00018  0.00003  0.00152  0.00627   9077.5
         Total DFT energy =    -5018.371380832217
         Total DFT energy =  -5018.371380832217
@   32   -5018.37138083 -7.3D-07  0.00016  0.00002  0.00110  0.00605   9263.7
         Total DFT energy =    -5018.371387025062
         Total DFT energy =    -5018.371392008426
@   33   -5018.37139201 -1.1D-05  0.00020  0.00005  0.00304  0.01972   9532.8
         Total DFT energy =    -5018.371387458424
         Total DFT energy =  -5018.371387458424
@   34   -5018.37138746  4.6D-06  0.00019  0.00003  0.00276  0.01480   9707.2
         Total DFT energy =    -5018.371393030317
         Total DFT energy =    -5018.371394444800
@   35   -5018.37139444 -7.0D-06  0.00029  0.00006  0.00374  0.01937   9974.1
         Total DFT energy =    -5018.371391082143
         Total DFT energy =  -5018.371391082143
@   36   -5018.37139108  3.4D-06  0.00014  0.00003  0.00225  0.01099  10149.3
         Total DFT energy =    -5018.371393648134
         Total DFT energy =  -5018.371393648134
@   37   -5018.37139365 -2.6D-06  0.00029  0.00005  0.00213  0.00932  10318.1
         Total DFT energy =    -5018.371396922376
         Total DFT energy =  -5018.371396922376
@   38   -5018.37139692 -3.3D-06  0.00013  0.00002  0.00164  0.00659  10486.7
         Total DFT energy =    -5018.371392633847
         Total DFT energy =  -5018.371392633847
@   39   -5018.37139263  4.3D-06  0.00019  0.00003  0.00236  0.01367  10663.6
         Total DFT energy =    -5018.371396015195
         Total DFT energy =  -5018.371396015195
@   40   -5018.37139602 -3.4D-06  0.00006  0.00001  0.00139  0.00850  10840.0
         Total DFT energy =    -5018.371403478704
         Total DFT energy =    -5018.371407468230
@   41   -5018.37140747 -1.1D-05  0.00022  0.00004  0.00438  0.02700  11101.6
         Total DFT energy =    -5018.371403659515
         Total DFT energy =  -5018.371403659515
@   42   -5018.37140366  3.8D-06  0.00010  0.00002  0.00210  0.00818  11302.1
         Total DFT energy =    -5018.371400433028
         Total DFT energy =  -5018.371400433028
@   43   -5018.37140043  3.2D-06  0.00006  0.00001  0.00097  0.00317  11478.5
         Total DFT energy =    -5018.371401544040
         Total DFT energy =  -5018.371401544040
@   44   -5018.37140154 -1.1D-06  0.00005  0.00001  0.00097  0.00605  11654.4
         Total DFT energy =    -5018.371403515192
         Total DFT energy =  -5018.371403515192
@   45   -5018.37140352 -2.0D-06  0.00011  0.00002  0.00172  0.01094  11826.8
         Total DFT energy =    -5018.371403973704
         Total DFT energy =  -5018.371403973704
@   46   -5018.37140397 -4.6D-07  0.00006  0.00001  0.00106  0.00469  12004.2
         Total DFT energy =    -5018.371407304804
         Total DFT energy =  -5018.371407304804
@   47   -5018.37140730 -3.3D-06  0.00006  0.00001  0.00074  0.00386  12182.8
         Total DFT energy =    -5018.371409221751
         Total DFT energy =  -5018.371409221751
@   48   -5018.37140922 -1.9D-06  0.00016  0.00002  0.00140  0.00879  12350.5
         Total DFT energy =    -5018.373028507270
         Total DFT energy =    -5018.373027001939
@   49   -5018.37302700 -1.6D-03  0.00013  0.00003  0.00226  0.01119  12613.5
         Total DFT energy =    -5018.373026586536
         Total DFT energy =  -5018.373026586536
@   50   -5018.37302659  4.2D-07  0.00006  0.00001  0.00091  0.00311  12787.7
         Total DFT energy =    -5018.373026372289
         Total DFT energy =  -5018.373026372289
@   51   -5018.37302637  2.1D-07  0.00011  0.00001  0.00086  0.00376  12961.1
         Total DFT energy =    -5018.373026502064
         Total DFT energy =  -5018.373026502064
@   52   -5018.37302650 -1.3D-07  0.00007  0.00001  0.00075  0.00377  13133.3
         Total DFT energy =    -5018.373028899930
         Total DFT energy =  -5018.373028899930
@   53   -5018.37302890 -2.4D-06  0.00005  0.00001  0.00077  0.00360  13316.0
         Total DFT energy =    -5018.373030807797
         Total DFT energy =  -5018.373030807797
@   54   -5018.37303081 -1.9D-06  0.00004  0.00001  0.00100  0.00343  13493.2
         Total DFT energy =    -5018.373031170163
         Total DFT energy =  -5018.373031170163
@   55   -5018.37303117 -3.6D-07  0.00005  0.00001  0.00044  0.00293  13672.1
         Total DFT energy =    -5018.373030645831
         Total DFT energy =  -5018.373030645831
@   56   -5018.37303065  5.2D-07  0.00005  0.00001  0.00055  0.00246  13847.9
         Total DFT energy =    -5018.373029332848
         Total DFT energy =  -5018.373029332848
@   57   -5018.37302933  1.3D-06  0.00005  0.00001  0.00048  0.00271  14021.0
         Total DFT energy =    -5018.373028475972
         Total DFT energy =  -5018.373028475972
@   58   -5018.37302848  8.6D-07  0.00004  0.00001  0.00042  0.00195  14195.6
         Total DFT energy =    -5018.373028203171
         Total DFT energy =  -5018.373028203171
@   59   -5018.37302820  2.7D-07  0.00004  0.00001  0.00059  0.00427  14378.7
         Total DFT energy =    -5018.373028179358
         Total DFT energy =  -5018.373028179358
@   60   -5018.37302818  2.4D-08  0.00005  0.00001  0.00058  0.00287  14563.5
         Total DFT energy =    -5018.373030279902
         Total DFT energy =  -5018.373030279902
@   61   -5018.37303028 -2.1D-06  0.00010  0.00001  0.00063  0.00564  14763.1
         Total DFT energy =    -5018.373029190511
         Total DFT energy =  -5018.373029190511
@   62   -5018.37302919  1.1D-06  0.00008  0.00001  0.00085  0.01104  14944.1
         Total DFT energy =    -5018.373028950674
         Total DFT energy =  -5018.373028950674
@   63   -5018.37302895  2.4D-07  0.00006  0.00001  0.00043  0.00270  15118.9
         Total DFT energy =    -5018.373028373201
         Total DFT energy =  -5018.373028373201
@   64   -5018.37302837  5.8D-07  0.00003  0.00001  0.00067  0.00364  15292.5
         Total DFT energy =    -5018.373028547215
         Total DFT energy =  -5018.373028547215
@   65   -5018.37302855 -1.7D-07  0.00008  0.00001  0.00045  0.00171  15466.4
@   65   -5018.37302855 -1.7D-07  0.00008  0.00001  0.00045  0.00171  15466.4

 Output coordinates in angstroms (scale by  1.889725989 to convert to a.u.)

  No.       Tag          Charge          X              Y              Z
 ---- ---------------- ---------- -------------- -------------- --------------
    1 O                    8.0000     3.76107143     1.72132783     4.49537128
    2 H                    1.0000    -1.90359395    -5.79573659     0.18120861
    3 H                    1.0000     5.40524465     9.64435785    -2.28714467
    4 Si                  14.0000    -1.31593029    -8.57352907    -3.12460830
    5 Si                  14.0000     0.50190248    -7.65781037     0.96406905
    6 Si                  14.0000     1.78210250    -3.99829168     5.00400855
    7 H                    1.0000     1.53905619     6.26446300     0.89912688
    8 Si                  14.0000    -3.30863487    -4.88609663    -1.68381213
    9 Si                  14.0000     0.15939154    -2.40745601     1.05314912
   10 Si                  14.0000     3.54442278     0.65348114     3.25289967
   11 H                    1.0000    -2.26769915     3.14491812     2.53506881
   12 Si                  14.0000    -4.72473310    -0.54819454     1.09234833
   13 Si                  14.0000    -0.49915256     2.39589548     0.60018048
   14 Si                  14.0000     3.83431911     4.77715095     0.06402997
   15 H                    1.0000    -1.60216275    -7.82476078    -0.47425542
   16 Si                  14.0000    -4.35955438     4.36984604     3.18465757
   17 Si                  14.0000    -0.80524721     7.12452232     0.80664365
   18 Si                  14.0000     3.09111116     8.47909535    -2.64943162
   19 O                    8.0000    -3.11091000    -0.64956124     1.55429136
   20 O                    8.0000     3.03925227    -5.01012686    -4.10103753
   21 O                    8.0000     6.36154156    -4.70652935     0.72666970
   22 O                    8.0000    -1.41185434     6.28479024     2.09855143
   23 O                    8.0000     0.77313265     2.69392113     1.64533899
   24 O                    8.0000    -1.51044639    -1.85106704    -4.66188305
   25 O                    8.0000     4.38582209    -0.89040302    -2.78126530
   26 O                    8.0000     2.26664658     8.29501332    -1.23093572
   27 O                    8.0000     4.71355840     6.10711357     0.49904933
   28 O                    8.0000    -4.11686778     2.37483410    -2.99236208
   29 O                    8.0000     0.26040157     2.55878647    -4.10819354
   30 H                    1.0000    -2.42982384    -1.35457576     1.52047051
   31 H                    1.0000    -5.14029932     3.74438273     5.59806858
   32 O                    8.0000     2.40036928     4.71054213     0.91399794
   33 O                    8.0000     0.49778789    -1.79011343     2.56156477
   34 O                    8.0000    -1.61137856    -4.97744936    -5.62003597
   35 O                    8.0000    -5.25115723     1.01743427     1.07360239
   36 Si                  14.0000    -4.60757480     3.63944746    -2.04463191
   37 Si                  14.0000     0.19621017     4.23284859    -3.98210437
   38 O                    8.0000     1.96080945    -4.75854161    -1.60425563
   39 O                    8.0000     4.86934466    -3.09518919     2.34342877
   40 H                    1.0000     5.10482453     6.95057094     0.71237967
   41 H                    1.0000    -3.33705313    -7.67709029    -1.84938501
   42 Si                  14.0000    -1.12928784    -5.48343260    -4.11349026
   43 O                    8.0000    -5.25262283     3.53306252     2.04677596
   44 O                    8.0000    -1.39047125     6.30421473    -0.54737410
   45 O                    8.0000    -2.78000819     3.87136877     2.93378799
   46 Si                  14.0000     2.06981380    -4.90393676     0.04657091
   47 O                    8.0000    -0.77442296     4.65531372    -2.70498235
   48 H                    1.0000    -1.80522304     5.54973076     2.59487351
   49 H                    1.0000     5.12490848     4.39931909    -4.71599634
   50 Si                  14.0000     4.50025932    -2.47280398     3.84043853
   51 O                    8.0000    -3.21711367     4.46889486    -1.61127435
   52 O                    8.0000     0.85996423     6.96033965     0.75491573
   53 O                    8.0000     1.45604214    -6.37021490     0.53859171
   54 O                    8.0000     3.51308278     4.86051902    -1.57124423
   55 O                    8.0000    -5.88723043    -1.73480171    -2.87998234
   56 O                    8.0000     4.57135226     9.20217590    -2.41550526
   57 O                    8.0000     3.18032400    -3.29355837     4.44876439
   58 H                    1.0000    -2.11605938   -10.47989434    -4.71044812
   59 O                    8.0000    -0.59900651    -0.48507328    -2.48114998
   60 H                    1.0000     3.85286722     2.37154449     5.18732594
   61 H                    1.0000    -2.31256119     0.90518457     1.59771868
   62 O                    8.0000    -4.45429597     6.00318712     2.94415030
   63 O                    8.0000     4.30490221     0.97272886    -0.81471964
   64 H                    1.0000    -6.25047306     5.23881641    -3.29281870
   65 O                    8.0000    -4.04364683    -3.41159280    -1.73417219
   66 O                    8.0000    -1.24269932     8.71874924     0.78810123
   67 H                    1.0000    -0.71311193     5.28789132    -6.18470889
   68 O                    8.0000     2.22033512     9.35271552    -3.76292588
   69 H                    1.0000     6.53849558    -2.66434083     5.45779946
   70 H                    1.0000     7.59987126     1.31442754     0.46969396
   71 H                    1.0000    -8.46442344     2.54243089     0.91247013
   72 H                    1.0000     3.70703954    -5.46192102    -4.60992697
   73 H                    1.0000     7.12940964    -5.26977677     0.68813502
   74 O                    8.0000    -2.25449188    -5.04555993    -2.95712790
   75 O                    8.0000     1.08474073    -3.73626016     0.71114726
   76 H                    1.0000    -1.32378134    -2.64591066    -5.16236600
   77 H                    1.0000     4.59802085    -1.66810336    -3.29628915
   78 O                    8.0000     4.37750682     4.49407470    -4.12787910
   79 O                    8.0000     1.74258360     4.74165046    -3.64290671
   80 O                    8.0000    -4.86925197     3.96184026     4.71057605
   81 O                    8.0000    -0.98136370    -7.50894820     0.22022591
   82 H                    1.0000    -5.37039254    -6.42475940    -1.83372475
   83 O                    8.0000     4.05888581    -0.87852929     3.64827015
   84 O                    8.0000     1.91975440    -2.65788829    -3.28171843
   85 O                    8.0000     5.09301210    -2.51155190    -0.31795789
   86 O                    8.0000     1.27582309    -5.18094215     3.96865536
   87 H                    1.0000    -3.60308217     1.73033842    -3.50065728
   88 O                    8.0000    -2.02926932     0.85137180    -4.25189498
   89 O                    8.0000     3.68648549     1.72188480    -3.33789440
   90 H                    1.0000     0.53925372    -2.05138882     3.50995425
   91 O                    8.0000     0.34783087    -4.84026396    -3.74398190
   92 O                    8.0000    -5.65866303     4.64193165    -2.84407088
   93 O                    8.0000    -0.36769079     4.88292269    -5.39355302
   94 O                    8.0000    -4.46979253    -6.10439317    -1.78826303
   95 O                    8.0000     3.62760399    -4.59537239     0.50542561
   96 H                    1.0000     0.75973220     1.74689434    -4.00308344
   97 O                    8.0000    -5.31366531     3.09555198    -0.63363550
   98 O                    8.0000    -1.45539424    -2.84109188     0.98058711
   99 H                    1.0000     1.27250233     2.09247444     2.24660761
  100 H                    1.0000    -1.92292069    -4.85813795    -6.51492449
  101 O                    8.0000     5.78791719    -2.60677564     4.87285339
  102 H                    1.0000     1.74557061     7.97238306    -0.46828200
  103 O                    8.0000    -4.75322742    -1.16030727    -0.45875903
  104 O                    8.0000    -5.66002791    -1.47265121     2.10051863
  105 H                    1.0000    -6.66438698    -1.56694994    -3.40701274
  106 Si                  14.0000    -5.85545216     2.56113260     0.84296897
  107 O                    8.0000     0.03855430     1.27538357    -0.51021812
  108 O                    8.0000     0.46832273    -1.28266424    -0.12261994
  109 O                    8.0000    -3.23453463    -1.09692398    -2.73839322
  110 Si                  14.0000    -1.63839411     4.85121009    -1.29471302
  111 H                    1.0000     1.03926500    -5.87353204     3.34395039
  112 H                    1.0000     3.86233259     2.57963901    -3.75001581
  113 H                    1.0000     1.91723010    -1.71136924    -3.12577882
  114 Si                  14.0000     3.24246799     5.26275444    -3.16012616
  115 O                    8.0000    -1.03022673     3.71713818    -0.21998053
  116 O                    8.0000    -1.85359515    -9.77535650    -4.12349724
  117 O                    8.0000     1.91802417     0.53357323     2.85725083
  118 H                    1.0000     1.73802250     4.07721070     1.28600896
  119 O                    8.0000     4.63308512     3.34151158     0.34361059
  120 H                    1.0000    -6.20384219    -1.96546226     2.70917834
  121 H                    1.0000     0.06939832    -7.88735024     3.51892199
  122 Si                  14.0000    -4.51717175    -1.81680021    -1.95974511
  123 H                    1.0000    -2.01950768    -3.56153960     0.63147302
  124 H                    1.0000    -0.01757360    -2.23768205     5.56968313
  125 O                    8.0000     0.02433465    -9.01594438    -2.26884778
  126 Si                  14.0000     0.48929105    -0.10658686    -1.29193779
  127 O                    8.0000     2.00767124     0.06195073    -1.97015784
  128 O                    8.0000    -2.49644154    -8.14449381    -1.98748473
  129 O                    8.0000     1.21699101    -9.08913213     0.47039367
  130 Si                  14.0000     5.02757901     1.73313796     0.48838728
  131 H                    1.0000     1.26077745    -0.17909630     2.70017330
  132 O                    8.0000    -7.51199279     2.52092760     0.88494943
  133 O                    8.0000    -2.44738475    -5.12086391    -0.26723326
  134 O                    8.0000     0.32157636    -7.66710915     2.62314261
  135 O                    8.0000     6.66035676     1.47679261     0.46292165
  136 O                    8.0000    -1.07524377    -7.14607015    -3.96376850
  137 O                    8.0000     1.99948442    -4.59757256     6.53684453
  138 O                    8.0000     0.61698948    -2.77450356     5.08705144
  139 Si                  14.0000     1.83461617    -4.30551942    -3.20623445
  140 Si                  14.0000    -1.86007043    -0.66035045    -3.56869630
  141 H                    1.0000     0.66239907    -9.16180684    -1.56459880
  142 H                    1.0000     1.74459736    -9.88636565     0.47500817
  143 Si                  14.0000     5.03009038    -3.72433316     0.80810382
  144 Si                  14.0000     3.61478101     0.48653395    -2.24252398
  145 H                    1.0000     2.17891969    -4.94335558     7.40721992
  146 O                    8.0000     3.33243452     6.91493247    -3.23465475
  147 O                    8.0000    -1.73285115     1.69518418     1.47715989
  148 H                    1.0000     5.01014435    -1.81853858    -0.98060825
  149 O                    8.0000     4.35869697     1.16850235     1.89930872
  150 H                    1.0000    -1.51701828     1.64755383    -4.46267035
  151 H                    1.0000     1.67514570     9.83489675    -4.37761486
  152 H                    1.0000    -1.42647445     9.65247186     0.73674131
  153 H                    1.0000    -4.31252886     6.92167340     2.72728251
  154 Bi                  83.0000    -1.61134503     0.73289908     5.00865374

 Total times  cpu:    14305.9s     wall:    15466.5s
