                         Program Version 5.0.2 -  RELEASE  -
|  1> !PAL8
|  2> !B3LYP DEF2-TZVP CPCM(WATER)
|  3> %TDDFT
|  4>    NROOTS   30
|  5> END
|  6> * XYZfile 0 1 MA.adf_geom.xyz
|  7>
|  8>                          ****END OF INPUT****

CARTESIAN COORDINATES (ANGSTROEM)
---------------------------------
  O     -2.875699    0.557483   -0.398239
  O      0.986773    1.613535   -0.258985
  O     -1.481574    0.303679    1.329880
  O      2.539173    0.290055    0.648822
  C     -0.772184   -0.387862   -0.874299
  C      0.586061   -0.705153   -0.326254
  C     -1.712801    0.188671    0.148962
  C      1.476104    0.414984    0.079740
  C      1.047377   -1.941355   -0.211517
  H     -0.715801    0.313954   -1.706116
  H     -1.238526   -1.292480   -1.263485
  H      0.447437   -2.791448   -0.504859
  H      2.040118   -2.126682    0.172421
  H     -3.448682    0.900998    0.308986
  H      1.619522    2.290421    0.036745

 Total Charge           Charge          ....    0
 Multiplicity           Mult            ....    1
 Number of Electrons    NEL             ....   68
 Basis Dimension        Dim             ....  315

ORBITAL ENERGIES
----------------

  NO   OCC          E(Eh)            E(eV)
   0   2.0000     -19.179046      -521.8884
   1   2.0000     -19.178420      -521.8713
   2   2.0000     -19.124070      -520.3924
   3   2.0000     -19.120005      -520.2818
   4   2.0000     -10.314277      -280.6658
   5   2.0000     -10.312796      -280.6254
   6   2.0000     -10.201659      -277.6013
   7   2.0000     -10.192962      -277.3646
   8   2.0000     -10.185771      -277.1689
   9   2.0000      -1.119997       -30.4767
  10   2.0000      -1.117395       -30.4059
  11   2.0000      -1.028062       -27.9750
  12   2.0000      -1.024879       -27.8884
  13   2.0000      -0.834854       -22.7175
  14   2.0000      -0.744865       -20.2688
  15   2.0000      -0.677574       -18.4377
  16   2.0000      -0.623790       -16.9742
  17   2.0000      -0.564437       -15.3591
  18   2.0000      -0.514344       -13.9960
  19   2.0000      -0.507575       -13.8118
  20   2.0000      -0.502983       -13.6869
  21   2.0000      -0.486721       -13.2443
  22   2.0000      -0.473200       -12.8764
  23   2.0000      -0.457899       -12.4601
  24   2.0000      -0.435821       -11.8593
  25   2.0000      -0.425436       -11.5767
  26   2.0000      -0.407854       -11.0983
  27   2.0000      -0.392107       -10.6698
  28   2.0000      -0.376102       -10.2343
  29   2.0000      -0.340527        -9.2662
  30   2.0000      -0.333253        -9.0683
  31   2.0000      -0.297494        -8.0952
  32   2.0000      -0.294024        -8.0008
  33   2.0000      -0.285356        -7.7649
  34   0.0000      -0.057794        -1.5727
  35   0.0000      -0.002867        -0.0780
  36   0.0000       0.038401         1.0449
  37   0.0000       0.055021         1.4972
  38   0.0000       0.060821         1.6550

MULLIKEN ATOMIC CHARGES
-----------------------
   0 O :   -0.388057
   1 O :   -0.394544
   2 O :   -0.380256
   3 O :   -0.391941
   4 C :   -0.190144
   5 C :   -0.027879
   6 C :    0.311493
   7 C :    0.341879
   8 C :   -0.240768
   9 H :    0.152983
  10 H :    0.164360
  11 H :    0.161514
  12 H :    0.155354
  13 H :    0.363746
  14 H :    0.362260
Sum of atomic charges:    0.0000000

LOEWDIN ATOMIC CHARGES
----------------------
   0 O :    0.113112
   1 O :    0.126908
   2 O :    0.062226
   3 O :    0.052221
   4 C :   -0.176083
   5 C :   -0.180283
   6 C :   -0.497955
   7 C :   -0.468607
   8 C :   -0.085499
   9 H :    0.169794
  10 H :    0.173742
  11 H :    0.139219
  12 H :    0.138382
  13 H :    0.216020
  14 H :    0.216805

  Mayer bond orders larger than 0.100000
B(  0-O ,  6-C ) :   1.2626 B(  0-O , 13-H ) :   0.8336 B(  1-O ,  7-C ) :   1.2476
B(  1-O , 14-H ) :   0.8347 B(  2-O ,  6-C ) :   2.0208 B(  3-O ,  7-C ) :   2.0023
B(  4-C ,  5-C ) :   0.9388 B(  4-C ,  6-C ) :   0.9738 B(  4-C ,  9-H ) :   0.9333
B(  4-C , 10-H ) :   0.9358 B(  5-C ,  7-C ) :   1.0027 B(  5-C ,  8-C ) :   1.8212
B(  8-C , 11-H ) :   0.9554 B(  8-C , 12-H ) :   0.9546

-----------------------------------------------------------------------------
         ABSORPTION SPECTRUM VIA TRANSITION ELECTRIC DIPOLE MOMENTS
-----------------------------------------------------------------------------
State   Energy    Wavelength  fosc         T2        TX        TY        TZ
        (cm-1)      (nm)                 (au**2)    (au)      (au)      (au)
-----------------------------------------------------------------------------
   1   39965.5    250.2   0.000458578   0.00378   0.01398  -0.05806  -0.01453
   2   44762.3    223.4   0.009757323   0.07176  -0.03545  -0.26533  -0.01037
   3   48886.8    204.6   0.000708644   0.00477  -0.05262  -0.03483   0.02810
   4   51011.2    196.0   0.327597856   2.11422  -0.11090  -1.43781  -0.18608
   5   54683.1    182.9   0.006952714   0.04186  -0.05851   0.18132  -0.07454
   6   55276.7    180.9   0.010888696   0.06485   0.08756   0.23763  -0.02669
   7   57466.7    174.0   0.101524852   0.58161  -0.33213   0.66002  -0.18886
   8   57882.6    172.8   0.012774468   0.07266   0.17631  -0.19768  -0.04995
   9   58815.2    170.0   0.002249367   0.01259  -0.06118  -0.06271  -0.07011
  10   63840.0    156.6   0.015747351   0.08121  -0.21799   0.01520   0.18291
  11   63927.4    156.4   0.003212497   0.01654   0.06692   0.10688  -0.02533
  12   65536.6    152.6   0.085549281   0.42974   0.46639  -0.37813  -0.26314
  13   65834.9    151.9   0.018145850   0.09074   0.00379  -0.27821   0.11543
  14   66056.3    151.4   0.018852119   0.09396   0.09928   0.28600  -0.04800
  15   66835.1    149.6   0.001048098   0.00516   0.06556   0.02775   0.00972
  16   68278.2    146.5   0.014821451   0.07146  -0.06449   0.21493   0.14529
  17   69189.7    144.5   0.007127892   0.03392   0.17053  -0.00435  -0.06940
  18   69962.7    142.9   0.060247297   0.28350   0.50198  -0.01102   0.17718
  19   70666.7    141.5   0.089377137   0.41638  -0.37366   0.48911  -0.19373
  20   70713.1    141.4   0.088209821   0.41067  -0.58163   0.15532  -0.21967
  21   70891.8    141.1   0.040531973   0.18823  -0.38919  -0.05802  -0.18274
  22   71224.9    140.4   0.006957350   0.03216   0.00407   0.12437  -0.12913
  23   71486.1    139.9   0.010454139   0.04814   0.05477   0.20327   0.06184
  24   72632.5    137.7   0.144802303   0.65633  -0.65988   0.35289  -0.31041
  25   72800.5    137.4   0.006928222   0.03133  -0.16142   0.06098  -0.03944
  26   73403.9    136.2   0.045464928   0.20391   0.17939  -0.38022   0.16480
  27   73724.4    135.6   0.065341361   0.29178   0.18916  -0.50557  -0.01986
  28   73892.4    135.3   0.091350910   0.40699   0.38444  -0.50911   0.00236
  29   74906.6    133.5   0.001941518   0.00853  -0.05017   0.06825  -0.03684
  30   75232.0    132.9   0.126544000   0.55375  -0.60032   0.21821  -0.38178

FINAL SINGLE POINT ENERGY      -494.849206537871

DIPOLE MOMENT
-------------
                                X             Y             Z
Electronic contribution:     -0.16487       2.99220       1.64359
Nuclear contribution   :     -0.91745      -3.03537      -2.92665
                        -----------------------------------------
Total Dipole Moment    :     -1.08232      -0.04317      -1.28306
                        -----------------------------------------
Magnitude (a.u.)       :      1.67915
Magnitude (Debye)      :      4.26806

Rotational constants in cm-1:     0.095290     0.037793     0.032398
Rotational constants in MHz :  2856.726883  1133.013379   971.255336

                             ****ORCA TERMINATED NORMALLY****
TOTAL RUN TIME: 0 days 0 hours 1 minutes 23 seconds 854 msec
