 Output coordinates in angstroms (scale by  1.889725989 to convert to a.u.)

  No.       Tag          Charge          X              Y              Z
 ---- ---------------- ---------- -------------- -------------- --------------
    1 H                    1.0000     0.00000000     0.00000000     0.00000000
    2 F                    9.0000     0.00000000     0.00000000     0.91000000

         Total DFT energy =     -100.346746359107

                       DFT Final Molecular Orbital Analysis
                       ------------------------------------

 Vector    1  Occ=2.000000D+00  E=-2.420976D+01

 Vector    2  Occ=2.000000D+00  E=-1.094196D+00

 Vector    3  Occ=2.000000D+00  E=-4.668758D-01

 Vector    4  Occ=2.000000D+00  E=-3.210577D-01

 Vector    5  Occ=2.000000D+00  E=-3.210577D-01

 Vector    6  Occ=0.000000D+00  E= 4.985290D-03

 Vector    7  Occ=0.000000D+00  E= 3.426731D-01

 Vector    8  Occ=0.000000D+00  E= 8.990218D-01

 Vector    9  Occ=0.000000D+00  E= 8.990218D-01

 Vector   10  Occ=0.000000D+00  E= 9.741015D-01

 Vector   11  Occ=0.000000D+00  E= 1.277775D+00

 Vector   12  Occ=0.000000D+00  E= 2.014916D+00

 Vector   13  Occ=0.000000D+00  E= 5.889763D+00

 Vector   14  Occ=0.000000D+00  E= 5.889763D+00

 Vector   15  Occ=0.000000D+00  E= 6.037894D+00

 Vector   16  Occ=0.000000D+00  E= 6.619417D+01

     Multipole analysis of the density
     ---------------------------------

     L   x y z        total         alpha         beta         nuclear
     -   - - -        -----         -----         ----         -------
     0   0 0 0     -0.000000     -5.000000     -5.000000     10.000000

     1   1 0 0     -0.000000     -0.000000     -0.000000      0.000000
     1   0 1 0     -0.000000     -0.000000     -0.000000      0.000000
     1   0 0 1     -0.846833     -8.161845     -8.161845     15.476856

     2   2 0 0     -4.124870     -2.062435     -2.062435      0.000000
     2   1 1 0      0.000000      0.000000      0.000000      0.000000
     2   1 0 1     -0.000000     -0.000000     -0.000000      0.000000
     2   0 2 0     -4.124870     -2.062435     -2.062435      0.000000
     2   0 1 1     -0.000000     -0.000000     -0.000000      0.000000

 Total times  cpu:        0.2s     wall:        0.2s
