============================== echo of input deck ==============================
echo

start molecule

memory total 40 gb

print low

title "VX"
charge 0

geometry units angstroms print xyz autosym
  load format xyz VX.converged_geometry_blyp_tz2p-solvent-chcl3.xyz
end

basis
  * library cc-pvtz
end

dft
  direct
  grid fine
  xc b3lyp
  mult 1
# Reduce output during geometry optimization
  #noprint "final vectors analysis"
end

property
  giao
  shielding
end

cosmo
  solvent chcl3
end

task dft energy
task dft property

================================================================================

 Output coordinates in angstroms (scale by  1.889725989 to convert to a.u.)

  No.       Tag          Charge          X              Y              Z
 ---- ---------------- ---------- -------------- -------------- --------------
    1 P                   15.0000     0.00760548    -2.29540273     0.66546752
    2 O                    8.0000     1.37562127    -1.67923372     0.66364464
    3 S                   16.0000    -1.33642003    -1.31522584    -0.69117876
    4 O                    8.0000    -0.07447033    -3.85671327     0.23789036
    5 C                    6.0000    -0.80186151    -2.37590019     2.29051679
    6 H                    1.0000    -0.18319588    -2.98603228     2.95874630
    7 H                    1.0000    -0.88453418    -1.36112939     2.69218101
    8 H                    1.0000    -1.79946944    -2.81696289     2.20030166
    9 C                    6.0000     0.59099047    -4.34252552    -0.99302616
   10 C                    6.0000     0.49895778    -5.86125795    -1.01109431
   11 H                    1.0000     1.63194552    -4.00069403    -0.97710029
   12 H                    1.0000     0.07884630    -3.89443445    -1.85287764
   13 H                    1.0000     0.98172644    -6.23858284    -1.92179972
   14 H                    1.0000     1.01006281    -6.29658813    -0.14426605
   15 H                    1.0000    -0.54599655    -6.19342111    -1.01179820
   16 C                    6.0000    -0.44129611     0.28353092    -1.05602207
   17 C                    6.0000    -0.56649268     1.33932459     0.06337344
   18 H                    1.0000    -0.91775061     0.64215176    -1.97489680
   19 H                    1.0000     0.59996198     0.03326883    -1.27209421
   20 H                    1.0000    -1.63129213     1.50574263     0.25675209
   21 H                    1.0000    -0.13585769     0.92921046     0.99485113
   22 N                    7.0000     0.05712392     2.60542127    -0.33860947
   23 C                    6.0000     1.53703594     2.65369363    -0.18451852
   24 C                    6.0000     2.05097457     3.07501760     1.21845627
   25 C                    6.0000     2.19025831     3.51055870    -1.29173901
   26 H                    1.0000     1.87251429     1.62092497    -0.34611742
   27 H                    1.0000     1.60141942     2.46390719     2.01096552
   28 H                    1.0000     3.13986542     2.94373574     1.27331476
   29 H                    1.0000     1.83268845     4.13002780     1.42796551
   30 H                    1.0000     1.86852557     3.16851506    -2.28256161
   31 H                    1.0000     1.92914229     4.57255218    -1.19402804
   32 H                    1.0000     3.28408962     3.43517111    -1.23371685
   33 C                    6.0000    -0.71230339     3.84806705    -0.05960192
   34 C                    6.0000    -1.26292669     3.98879169     1.38698675
   35 C                    6.0000    -1.85218500     4.02658660    -1.09003907
   36 H                    1.0000    -0.00650990     4.67269642    -0.21718159
   37 H                    1.0000    -0.47204873     3.87824741     2.13597454
   38 H                    1.0000    -1.71686673     4.98044133     1.51750949
   39 H                    1.0000    -2.04060680     3.24343382     1.59843828
   40 H                    1.0000    -1.45282671     4.01607567    -2.11069379
   41 H                    1.0000    -2.59582489     3.22222757    -1.00566780
   42 H                    1.0000    -2.37535478     4.97847398    -0.92711975

         Total DFT energy =    -1379.975910491446
         Total DFT energy =    -1379.975910500337
      Atom:    1  P
           isotropic =     214.4781
      Atom:    2  O
           isotropic =     159.4265
      Atom:    3  S
           isotropic =     455.9622
      Atom:    4  O
           isotropic =     175.3303
      Atom:    5  C
           isotropic =     154.4014
      Atom:    6  H
           isotropic =      29.7037
      Atom:    7  H
           isotropic =      29.8171
      Atom:    8  H
           isotropic =      29.7274
      Atom:    9  C
           isotropic =     112.1378
      Atom:   10  C
           isotropic =     163.8611
      Atom:   11  H
           isotropic =      27.2021
      Atom:   12  H
           isotropic =      27.2494
      Atom:   13  H
           isotropic =      30.2482
      Atom:   14  H
           isotropic =      30.1248
      Atom:   15  H
           isotropic =      30.1491
      Atom:   16  C
           isotropic =     138.5808
      Atom:   17  C
           isotropic =     129.0937
      Atom:   18  H
           isotropic =      29.1925
      Atom:   19  H
           isotropic =      28.2231
      Atom:   20  H
           isotropic =      28.8928
      Atom:   21  H
           isotropic =      28.7831
      Atom:   22  N
           isotropic =     173.2026
      Atom:   23  C
           isotropic =     122.6597
      Atom:   24  C
           isotropic =     162.8433
      Atom:   25  C
           isotropic =     157.0056
      Atom:   26  H
           isotropic =      28.5059
      Atom:   27  H
           isotropic =      30.1670
      Atom:   28  H
           isotropic =      30.7223
      Atom:   29  H
           isotropic =      30.6520
      Atom:   30  H
           isotropic =      30.6250
      Atom:   31  H
           isotropic =      30.2124
      Atom:   32  H
           isotropic =      30.5023
      Atom:   33  C
           isotropic =     128.7298
      Atom:   34  C
           isotropic =     160.5045
      Atom:   35  C
           isotropic =     155.4404
      Atom:   36  H
           isotropic =      28.3821
      Atom:   37  H
           isotropic =      30.5230
      Atom:   38  H
           isotropic =      30.6603
      Atom:   39  H
           isotropic =      30.4385
      Atom:   40  H
           isotropic =      30.6775
      Atom:   41  H
           isotropic =      30.4311
      Atom:   42  H
           isotropic =      30.5959
 Total times  cpu:    32073.8s     wall:    32100.7s
