============================== echo of input deck ==============================
echo

restart Q-G_117atoms

permanent_dir /lustre/ukt/milias/scratch/Q-G_117atoms

driver
  maxiter 999
  xyz Qgeomconv
end

task dft optimize

#task dft frequencies
================================================================================

         Total DFT energy =    -3804.615580565422
@ Step       Energy      Delta E   Gmax     Grms     Xrms     Xmax   Walltime
@ ---- ---------------- -------- -------- -------- -------- -------- --------
@    0   -3804.61558057  0.0D+00  0.00065  0.00012  0.00000  0.00000    489.9
         Total DFT energy =    -3804.615619452654
         Total DFT energy =  -3804.615619452654
@    1   -3804.61561945 -3.9D-05  0.00048  0.00011  0.00949  0.02977    573.9
         Total DFT energy =    -3804.615686994352
         Total DFT energy =    -3804.615688059925
@    2   -3804.61568806 -6.9D-05  0.00068  0.00015  0.01117  0.04456    695.3
         Total DFT energy =    -3804.615766186060
         Total DFT energy =    -3804.615767091445
@    3   -3804.61576709 -7.9D-05  0.00076  0.00015  0.01455  0.05719   1686.5
         Total DFT energy =    -3804.615838674930
         Total DFT energy =    -3804.615840498238
@    4   -3804.61584050 -7.3D-05  0.00084  0.00016  0.01037  0.03750   1810.5
         Total DFT energy =    -3804.615908894168
         Total DFT energy =    -3804.615908024103
@    5   -3804.61590802 -6.8D-05  0.00079  0.00014  0.01358  0.06692   3135.8
         Total DFT energy =    -3804.615969558554
         Total DFT energy =  -3804.615969558554
@    6   -3804.61596956 -6.2D-05  0.00086  0.00013  0.01350  0.06258   3226.8
         Total DFT energy =    -3804.616043093734
         Total DFT energy =  -3804.616043093734
@    7   -3804.61604309 -7.4D-05  0.00086  0.00018  0.01436  0.05370   3317.0
         Total DFT energy =    -3804.616076962009
         Total DFT energy =    -3804.616080157955
@    8   -3804.61608016 -3.7D-05  0.00063  0.00012  0.00858  0.03110   3869.3
         Total DFT energy =    -3804.616122766467
         Total DFT energy =    -3804.616124488732
@    9   -3804.61612449 -4.4D-05  0.00072  0.00011  0.00855  0.03199   3994.5
         Total DFT energy =    -3804.616162827067
         Total DFT energy =    -3804.616164987749
@   10   -3804.61616499 -4.0D-05  0.00051  0.00014  0.00740  0.03110   4119.7
         Total DFT energy =    -3804.616211389530
         Total DFT energy =  -3804.616211389530
@   11   -3804.61621139 -4.6D-05  0.00052  0.00012  0.01046  0.04481   4208.6
         Total DFT energy =    -3804.616249205072
         Total DFT energy =    -3804.616255305385
@   12   -3804.61625531 -4.4D-05  0.00060  0.00012  0.01084  0.04372   4341.6
         Total DFT energy =    -3804.616295337022
         Total DFT energy =    -3804.616298251505
@   13   -3804.61629825 -4.3D-05  0.00077  0.00014  0.00794  0.02798   4479.6
         Total DFT energy =    -3804.616334843771
         Total DFT energy =    -3804.616334340590
@   14   -3804.61633434 -3.6D-05  0.00070  0.00012  0.00945  0.05095   4601.1
         Total DFT energy =    -3804.616367023344
         Total DFT energy =    -3804.616374444742
@   15   -3804.61637444 -4.0D-05  0.00050  0.00013  0.00857  0.03555   4728.7
         Total DFT energy =    -3804.616412251104
         Total DFT energy =    -3804.616411755347
@   16   -3804.61641176 -3.7D-05  0.00062  0.00012  0.00736  0.03126   4842.1
         Total DFT energy =    -3804.616465833667
         Total DFT energy =    -3804.616467768972
@   17   -3804.61646777 -5.6D-05  0.00058  0.00013  0.01118  0.05349   5845.5
         Total DFT energy =    -3804.616519493946
         Total DFT energy =    -3804.616518846909
@   18   -3804.61651885 -5.1D-05  0.00076  0.00012  0.01007  0.04654   5959.7
         Total DFT energy =    -3804.616568246785
         Total DFT energy =    -3804.616568334568
@   19   -3804.61656833 -4.9D-05  0.00056  0.00013  0.00910  0.03526   6457.4
         Total DFT energy =    -3804.616613137508
         Total DFT energy =  -3804.616613137508
@   20   -3804.61661314 -4.5D-05  0.00052  0.00012  0.01143  0.04615   6545.2
         Total DFT energy =    -3804.616661342936
         Total DFT energy =    -3804.616662397928
@   21   -3804.61666240 -4.9D-05  0.00049  0.00011  0.00829  0.03282   7000.7
         Total DFT energy =    -3804.616693283577
         Total DFT energy =  -3804.616693283577
@   22   -3804.61669328 -3.1D-05  0.00041  0.00010  0.00586  0.02459   7102.3
         Total DFT energy =    -3804.616710705921
         Total DFT energy =    -3804.616710388500
@   23   -3804.61671039 -1.7D-05  0.00042  0.00008  0.00498  0.01635   7564.2
         Total DFT energy =    -3804.616730530313
         Total DFT energy =    -3804.616741146647
@   24   -3804.61674115 -3.1D-05  0.00043  0.00009  0.00804  0.03161   7698.1
         Total DFT energy =    -3804.616753391590
         Total DFT energy =    -3804.616755205674
@   25   -3804.61675521 -1.4D-05  0.00042  0.00007  0.00575  0.02327   7820.5
         Total DFT energy =    -3804.616789023032
         Total DFT energy =    -3804.616788195224
@   26   -3804.61678820 -3.3D-05  0.00083  0.00013  0.00870  0.03513   7956.9
         Total DFT energy =    -3804.616812254832
         Total DFT energy =    -3804.616811307504
@   27   -3804.61681131 -2.3D-05  0.00053  0.00009  0.00526  0.03569   8078.8
         Total DFT energy =    -3804.616865231097
         Total DFT energy =    -3804.616866908853
@   28   -3804.61686691 -5.6D-05  0.00092  0.00016  0.01178  0.05846   8203.7
         Total DFT energy =    -3804.616933785757
         Total DFT energy =    -3804.616955826270
@   29   -3804.61695583 -8.9D-05  0.00069  0.00017  0.02630  0.12742   9427.4
         Total DFT energy =    -3804.617061410452
         Total DFT energy =    -3804.617063139191
@   30   -3804.61706314 -1.1D-04  0.00099  0.00019  0.01934  0.08197   9552.9
         Total DFT energy =    -3804.617139783990
         Total DFT energy =    -3804.617147852952
@   31   -3804.61714785 -8.5D-05  0.00063  0.00013  0.01753  0.08961   9670.3
         Total DFT energy =    -3804.617215058024
         Total DFT energy =    -3804.617213029334
@   32   -3804.61721303 -6.5D-05  0.00048  0.00012  0.01782  0.09515   9784.5
         Total DFT energy =    -3804.617566869729
         Total DFT energy =    -3804.617575349195
@   51   -3804.61757535 -2.1D-05  0.00020  0.00005  0.00651  0.02452  18474.7
         Total DFT energy =    -3804.617557695921
         Total DFT energy =    -3804.617570503262
@   52   -3804.61757050  4.8D-06  0.00020  0.00004  0.00243  0.01066  18598.0
         Total DFT energy =    -3804.617575101140
         Total DFT energy =  -3804.617575101140
@   53   -3804.61757510 -4.6D-06  0.00019  0.00006  0.00450  0.01319  18682.3
         Total DFT energy =    -3804.617577707177
         Total DFT energy =  -3804.617577707177
@   54   -3804.61757771 -2.6D-06  0.00022  0.00006  0.00294  0.01113  18769.0
         Total DFT energy =    -3804.617589004120
         Total DFT energy =  -3804.617589004120
@   55   -3804.61758900 -1.1D-05  0.00026  0.00006  0.00395  0.01402  18856.1
         Total DFT energy =    -3804.617611028429
         Total DFT energy =    -3804.617501022465
@   56   -3804.61750102  8.8D-05  0.00074  0.00016  0.01832  0.08019  19297.4
         Total DFT energy =    -3804.617596423901
         Total DFT energy =    -3804.617536806396
@   57   -3804.61753681 -3.6D-05  0.00058  0.00017  0.02299  0.09898  19428.2
         Total DFT energy =    -3804.617636213023
         Total DFT energy =    -3804.617631635043
@   58   -3804.61763164 -9.5D-05  0.00029  0.00005  0.01256  0.04715  19865.8
         Total DFT energy =    -3804.617609488587
         Total DFT energy =    -3804.617641350314
@   59   -3804.61764135 -9.7D-06  0.00021  0.00004  0.00059  0.00258  19991.9
         Total DFT energy =    -3804.617628736331
         Total DFT energy =    -3804.617624689750
@   60   -3804.61762469  1.7D-05  0.00011  0.00003  0.00224  0.01046  20113.3
         Total DFT energy =    -3804.617616699647
         Total DFT energy =    -3804.617614229110
@   61   -3804.61761423  1.0D-05  0.00010  0.00003  0.00053  0.00226  20223.7
         Total DFT energy =    -3804.617612974909
         Total DFT energy =  -3804.617612974909
@   62   -3804.61761297  1.3D-06  0.00009  0.00002  0.00141  0.00497  20298.9
         Total DFT energy =    -3804.617628714746
         Total DFT energy =    -3804.617651691495
@   63   -3804.61765169 -3.9D-05  0.00058  0.00007  0.00423  0.01957  20404.4
         Total DFT energy =    -3804.617634775370
         Total DFT energy =    -3804.617648567320
@   64   -3804.61764857  3.1D-06  0.00054  0.00006  0.00060  0.00198  20515.9
         Total DFT energy =    -3804.617667755347
         Total DFT energy =  -3804.617667755347
@   65   -3804.61766776 -1.9D-05  0.00023  0.00005  0.00657  0.02196  20918.8
         Total DFT energy =    -3804.617681373546
         Total DFT energy =    -3804.617668335715
@   66   -3804.61766834 -5.8D-07  0.00034  0.00007  0.00885  0.03011  21337.5
         Total DFT energy =    -3804.617659438871
         Total DFT energy =    -3804.617663948560
@   67   -3804.61766395  4.4D-06  0.00027  0.00006  0.00114  0.00396  21753.9
         Total DFT energy =    -3804.617693865071
         Total DFT energy =    -3804.617662827817
@   68   -3804.61766283  1.1D-06  0.00051  0.00008  0.01066  0.04048  21875.5
         Total DFT energy =    -3804.617686239235
         Total DFT energy =    -3804.617701588193
@   69   -3804.61770159 -3.9D-05  0.00035  0.00007  0.00880  0.03528  21998.9
         Total DFT energy =    -3804.617667766772
         Total DFT energy =    -3804.617700171002
@   70   -3804.61770017  1.4D-06  0.00030  0.00006  0.00063  0.00261  22127.5
         Total DFT energy =    -3804.617666028889
         Total DFT energy =    -3804.617666053242
@   71   -3804.61766605  3.4D-05  0.00020  0.00004  0.00225  0.00865  22568.9
         Total DFT energy =    -3804.617690168649
         Total DFT energy =    -3804.617694647288
@   72   -3804.61769465 -2.9D-05  0.00031  0.00006  0.00689  0.02160  22691.7
         Total DFT energy =    -3804.617709490687
         Total DFT energy =    -3804.617716182211
@   73   -3804.61771618 -2.2D-05  0.00014  0.00003  0.00629  0.02863  22818.8
         Total DFT energy =    -3804.617716230801
         Total DFT energy =  -3804.617716230801
@   74   -3804.61771623 -4.9D-08  0.00007  0.00002  0.00183  0.01367  22896.1
         Total DFT energy =    -3804.617710515658
         Total DFT energy =    -3804.617717150275
@   75   -3804.61771715 -9.2D-07  0.00007  0.00002  0.00101  0.00484  23012.4
         Total DFT energy =    -3804.617690349942
         Total DFT energy =    -3804.617708118247
@   76   -3804.61770812  9.0D-06  0.00010  0.00002  0.00127  0.00544  23442.5
         Total DFT energy =    -3804.617692119542
         Total DFT energy =    -3804.617700441475
@   77   -3804.61770044  7.7D-06  0.00010  0.00002  0.00060  0.00232  23555.8
         Total DFT energy =    -3804.617697934529
         Total DFT energy =  -3804.617697934529
@   78   -3804.61769793  2.5D-06  0.00008  0.00002  0.00166  0.00817  23637.2
         Total DFT energy =    -3804.617695554587
         Total DFT energy =  -3804.617695554587
@   79   -3804.61769555  2.4D-06  0.00013  0.00003  0.00375  0.01738  23721.6
         Total DFT energy =    -3804.617700022793
         Total DFT energy =  -3804.617700022793
@   80   -3804.61770002 -4.5D-06  0.00019  0.00004  0.00432  0.01620  23808.9
         Total DFT energy =    -3804.617702127392
         Total DFT energy =  -3804.617702127392
@   81   -3804.61770213 -2.1D-06  0.00016  0.00003  0.00320  0.01412  23885.1
         Total DFT energy =    -3804.617710909333
         Total DFT energy =    -3804.617731598029
@   82   -3804.61773160 -2.9D-05  0.00027  0.00005  0.00378  0.01456  23993.2
         Total DFT energy =    -3804.617712636120
         Total DFT energy =    -3804.617732357277
@   83   -3804.61773236 -7.6D-07  0.00024  0.00004  0.00028  0.00112  24098.6
@   83   -3804.61773236 -7.6D-07  0.00024  0.00004  0.00028  0.00112  24098.9

 Output coordinates in angstroms (scale by  1.889725989 to convert to a.u.)

  No.       Tag          Charge          X              Y              Z
 ---- ---------------- ---------- -------------- -------------- --------------
    1 O                    8.0000    -4.22902222    -3.39454745    -4.16810034
    2 H                    1.0000     4.73816208    -0.71534991    -1.55187640
    3 O                    8.0000    -0.87690361     2.66513164    -3.14082068
    4 O                    8.0000    -4.92949382    -4.64804748     0.55497590
    5 O                    8.0000     7.25688872    -1.53195186     3.84520980
    6 Si                  14.0000     1.82063163     1.86678306     2.11126817
    7 O                    8.0000    -2.04839029    -2.00687132    -3.24520946
    8 Si                  14.0000     6.18705708     0.49013282     0.23858423
    9 Si                  14.0000     1.94453686    -1.82145644    -1.99139535
   10 Si                  14.0000    -3.02898976    -3.35631249    -3.02764141
   11 H                    1.0000     3.02775826     0.24220928    -2.94667809
   12 Si                  14.0000     3.15783631     3.43933108    -2.79730239
   13 Si                  14.0000    -1.82994979     1.87640754    -2.01757815
   14 Si                  14.0000    -6.16982658    -0.48558951    -0.02382948
   15 Si                  14.0000    -4.28150367    -3.20882122     0.05721347
   16 H                    1.0000     8.07192648    -1.92552401     4.14623309
   17 H                    1.0000    -4.64117006     0.76435536    -1.71484293
   18 H                    1.0000    -0.78160485    -4.72689479     1.52638486
   19 O                    8.0000     2.19376866     2.09632649    -3.10683701
   20 O                    8.0000     3.41021899    -4.38810225     4.04468263
   21 O                    8.0000     0.67825897    -7.78261305     0.18309676
   22 O                    8.0000    -5.40056533    -1.97249112     0.07634123
   23 O                    8.0000    -2.83937459     0.74755591    -2.71831300
   24 O                    8.0000     2.57314301     0.92101943     3.26398160
   25 O                    8.0000    -0.76159085    -2.96496721     2.63387650
   26 O                    8.0000    -3.68599300    -3.33513433    -1.49957612
   27 O                    8.0000    -7.75781704    -0.66974602    -0.47062806
   28 O                    8.0000     0.39638775     5.34201341     1.11226474
   29 O                    8.0000    -2.10876942     2.08121135     3.19153108
   30 H                    1.0000     1.27321518     1.82572178    -3.21230014
   31 H                    1.0000     5.52258096    -5.23203817    -0.98093344
   32 O                    8.0000    -5.31797016     0.41852652    -1.11744661
   33 O                    8.0000     1.02508579    -2.57247727    -3.16733902
   34 O                    8.0000     5.25157560     0.25132780     4.29452555
   35 O                    8.0000     2.14036464     4.75782892    -2.95283858
   36 Si                  14.0000    -0.47430430     6.18431134    -0.01527150
   37 Si                  14.0000    -3.44948151     3.05596260     2.90859152
   38 O                    8.0000     3.34888270    -3.73936982     1.40022680
   39 O                    8.0000    -0.14661089    -6.04810977    -1.74491651
   40 H                    1.0000    -8.66318753    -0.77072631    -0.75133097
   41 H                    1.0000    -8.20771716     1.80894921     3.87717702
   42 Si                  14.0000     5.83369648    -0.92986164     3.24070723
   43 O                    8.0000    -0.22723401     5.37165202    -4.09560621
   44 O                    8.0000    -4.61060122     4.92330087    -0.73092535
   45 Si                  14.0000     0.01654788     0.00003791     0.02299793
   46 Si                  14.0000     3.22983159    -4.28569319    -0.17511088
   47 O                    8.0000    -3.36720820     3.69765032     1.37571107
   48 H                    1.0000     5.14695544     3.52920600    -4.48403083
   49 H                    1.0000    -5.46502418    -1.04318573     4.74526764
   50 Si                  14.0000    -0.80243370    -5.81993841    -3.25482504
   51 O                    8.0000    -1.95612228     5.41139358    -0.15827423
   52 Si                  14.0000     3.36297447    -3.14303581     2.95361187
   53 O                    8.0000     4.67288816    -4.91329904    -0.68759077
   54 O                    8.0000    -6.10430347     0.20851238     1.50409438
   55 O                    8.0000     4.91378839     4.63018715     0.88764322
   56 H                    1.0000    -0.24854290     2.93029779     3.07823998
   57 O                    8.0000     0.39184148    -5.21640204    -4.28278466
   58 Si                  14.0000     0.50772644    -6.17745712    -0.20374298
   59 O                    8.0000     0.99351288     0.87963821     1.04389709
   60 H                    1.0000    -4.93147133    -3.39048932    -4.81349041
   61 H                    1.0000    -0.58706089     3.46761711    -3.60117268
   62 O                    8.0000    -1.01395875    -0.90569255     0.96583370
   63 O                    8.0000    -3.03234185    -2.73157972     1.06504967
   64 H                    1.0000    -0.80667061     8.68484660     0.66593965
   65 O                    8.0000     5.40560086     1.96983081     0.35118888
   66 Si                  14.0000     4.28417988     3.20416152     0.33145897
   67 H                    1.0000    -3.55773688     4.97895059     4.66954345
   68 O                    8.0000    -7.37930779     1.42635513     3.59868137
   69 H                    1.0000    -1.74922058    -8.06935106    -4.18423556
   70 H                    1.0000    -5.26225006    -5.49308007     0.84626287
   71 H                    1.0000     1.95614875     8.18119894    -3.86912888
   72 H                    1.0000     3.41468322    -5.11883656     4.65772654
   73 H                    1.0000     0.76977310    -8.69880302     0.42977734
   74 O                    8.0000     6.06239341    -0.24969068     1.74117280
   75 O                    8.0000     2.75183300    -3.00655007    -1.14452897
   76 H                    1.0000     3.35893987     0.61900263     3.74405191
   77 H                    1.0000     0.14051848    -3.03162994     2.98644565
   78 O                    8.0000    -5.39070962    -0.36953148     4.07023543
   79 O                    8.0000    -4.76953603     2.03430917     3.01052835
   80 H                    1.0000     1.05503932    -5.25052880    -4.97131839
   81 H                    1.0000    -1.12342330    -1.73591218    -3.29911435
   82 H                    1.0000     8.70687921     0.80993444    -0.37459155
   83 O                    8.0000    -2.00508751    -4.67048789    -3.17509701
   84 O                    8.0000     2.00607872    -2.18348334     3.20913039
   85 O                    8.0000    -0.42537339    -5.37075010     0.90013342
   86 O                    8.0000     1.55697737     7.36261407    -3.58573901
   87 H                    1.0000     0.72381926     4.67761015     1.73312722
   88 O                    8.0000     0.67023348     2.88215762     2.76741750
   89 O                    8.0000    -2.68542824    -1.02035894     3.11473331
   90 H                    1.0000     0.75149264    -3.35639147    -3.66847033
   91 O                    8.0000     4.67194160    -2.11905835     3.13934715
   92 O                    8.0000    -0.67768041     7.77495675     0.41322201
   93 O                    8.0000    -3.53535127     4.26817906     4.03359446
   94 O                    8.0000     7.79117270     0.69531435    -0.13575526
   95 O                    8.0000     1.99640345    -5.40659447    -0.23541901
   96 H                    1.0000    -1.82733277     1.16152868     3.26610101
   97 O                    8.0000     0.26799205     6.10910173    -1.51991707
   98 O                    8.0000     2.97575837    -0.67457268    -2.62821216
   99 H                    1.0000    -2.87935748    -0.16061567    -3.06264768
  100 H                    1.0000     5.29666411     0.91069709     4.98585429
  101 O                    8.0000    -1.37522654    -7.24737973    -3.87701778
  102 H                    1.0000    -0.89051657     5.44052091    -4.78114921
  103 O                    8.0000     3.73615554     3.37261536    -1.23875946
  104 O                    8.0000     4.41463729     3.51415703    -3.87291083
  105 H                    1.0000     5.23419792     5.46710751     1.21413095
  106 Si                  14.0000     0.95249907     5.92343714    -3.02334222
  107 O                    8.0000    -0.84988776     1.01665813    -0.97039061
  108 O                    8.0000     0.93630331    -0.99150746    -0.94684719
  109 O                    8.0000     3.00627643     2.69759575     1.28785388
  110 Si                  14.0000    -3.18660099     4.28585229    -0.17845209
  111 O                    8.0000     5.38717009    -0.38511598    -0.91609997
  112 H                    1.0000    -3.48971192    -0.73535699     3.57450167
  113 H                    1.0000     1.71437080    -1.26859494     3.29939842
  114 Si                  14.0000    -5.93344752     0.84320899     3.03076364
  115 O                    8.0000    -2.66692695     3.03536533    -1.16342497
  116 Si                  14.0000    -1.88383878    -1.92740953     1.96409818
  117 H                    1.0000    -5.45002649     5.24702907    -1.04760601

 Total times  cpu:    23009.5s     wall:    24099.9s
