============================== echo of input deck ==============================
echo

start molecule

memory total 40 gb

print low

title "der1"
charge 0

geometry units angstroms print xyz autosym
#  load format xyz VX.converged_geometry_blyp_tz2p-solvent-chcl3.xyz
#  load format xyz VX.geom.xyz
 # load format xyz der1.pbe0_tz2p_good_cosmo-chcl3_optimized_geom.xyz
  load format xyz der2.geopt_freq_nmr_pbe0_tz2p_good_cosmo-chcl3_converged_geometry.xyz
end

basis
  * library cc-pvdz
end

dft
  direct
  grid fine
  xc b3lyp
  mult 1
# Reduce output during geometry optimization
  #noprint "final vectors analysis"
end

property
  giao
  shielding
  spinspin
end

cosmo
  solvent chcl3
end

task dft energy
task dft property
================================================================================

 Output coordinates in angstroms (scale by  1.889725989 to convert to a.u.)

  No.       Tag          Charge          X              Y              Z
 ---- ---------------- ---------- -------------- -------------- --------------
    1 O                    8.0000    -0.04341044    -0.73369813    -0.04085401
    2 P                   15.0000    -0.44611685     0.47703258    -1.05343430
    3 O                    8.0000     0.83720009     1.48585040    -1.04137126
    4 O                    8.0000    -1.28975000     1.37172392     0.02064437
    5 C                    6.0000     0.84108504     2.39610613     0.08887089
    6 C                    6.0000    -0.67674430     2.64706668     0.32804480
    7 C                    6.0000     1.53348750     1.72111364     1.26334319
    8 C                    6.0000     1.61284146     3.63086321    -0.32700096
    9 C                    6.0000    -1.26605170     3.67640246    -0.62378209
   10 C                    6.0000    -1.02568757     2.99451554     1.76012825
   11 H                    1.0000     1.66107846     2.42286749     2.08854573
   12 H                    1.0000     0.98002643     0.85289405     1.61631651
   13 H                    1.0000     2.52215176     1.39017053     0.94319721
   14 H                    1.0000     1.23639267     4.04556628    -1.26021739
   15 H                    1.0000     1.54820876     4.39619674     0.44881612
   16 H                    1.0000     2.66469413     3.37618356    -0.46141862
   17 H                    1.0000    -0.92294367     4.68206117    -0.37963408
   18 H                    1.0000    -1.00229208     3.45958160    -1.65979489
   19 H                    1.0000    -2.35248448     3.65478089    -0.53418895
   20 H                    1.0000    -0.51750808     3.91290247     2.06034667
   21 H                    1.0000    -2.10007263     3.16035386     1.84572717
   22 H                    1.0000    -0.74337543     2.19790863     2.44577211
   23 C                    6.0000     0.27747309    -2.00999264    -0.58709657
   24 C                    6.0000    -0.38988564    -3.07281736     0.26282843
   25 N                    7.0000    -0.04881684    -4.41716103    -0.16101358
   26 C                    6.0000     1.29387398    -4.79179613     0.23888988
   27 H                    1.0000    -2.00978854    -5.12664754     0.00115322
   28 H                    1.0000     1.51908242    -5.79393874    -0.12845467
   29 C                    6.0000    -1.00692680    -5.37744254     0.34913174
   30 H                    1.0000    -0.07040759    -2.08538831    -1.62252377
   31 H                    1.0000     1.36372261    -2.12034771    -0.58801192
   32 H                    1.0000    -1.47086993    -2.94513519     0.17386901
   33 H                    1.0000    -0.13145960    -2.89978976     1.32199975
   34 H                    1.0000    -1.02302957    -5.41235605     1.45178254
   35 H                    1.0000     1.41486849    -4.79273521     1.33573382
   36 H                    1.0000     2.03168980    -4.11023581    -0.18315365
   37 H                    1.0000    -0.75732086    -6.37537787    -0.01475063

         Total DFT energy =    -1016.170580497421
         Total DFT energy =    -1016.170580533647
      Atom:    1  O
           isotropic =     194.4538
      Atom:    2  P
           isotropic =     247.1762
      Atom:    3  O
           isotropic =     181.9439
      Atom:    4  O
           isotropic =     193.3072
      Atom:    5  C
           isotropic =     109.0442
      Atom:    6  C
           isotropic =     107.0284
      Atom:    7  C
           isotropic =     166.5330
      Atom:    8  C
           isotropic =     168.9528
      Atom:    9  C
           isotropic =     166.5905
      Atom:   10  C
           isotropic =     169.5028
      Atom:   11  H
           isotropic =      30.5003
      Atom:   12  H
           isotropic =      29.7148
      Atom:   13  H
           isotropic =      30.5231
      Atom:   14  H
           isotropic =      30.4759
      Atom:   15  H
           isotropic =      30.4829
      Atom:   16  H
           isotropic =      30.2973
      Atom:   17  H
           isotropic =      30.6517
      Atom:   18  H
           isotropic =      30.3865
      Atom:   19  H
           isotropic =      30.6062
      Atom:   20  H
           isotropic =      30.4088
      Atom:   21  H
           isotropic =      30.2787
      Atom:   22  H
           isotropic =      30.3160
      Atom:   23  C
           isotropic =     132.9023
      Atom:   24  C
           isotropic =     131.9017
      Atom:   25  N
           isotropic =     232.1913
      Atom:   26  C
           isotropic =     150.4398
      Atom:   27  H
           isotropic =      29.4141
      Atom:   28  H
           isotropic =      29.5658
      Atom:   29  C
           isotropic =     145.5818
      Atom:   30  H
           isotropic =      27.8308
      Atom:   31  H
           isotropic =      27.9701
      Atom:   32  H
           isotropic =      29.2399
      Atom:   33  H
           isotropic =      29.7165
      Atom:   34  H
           isotropic =      29.7647
      Atom:   35  H
           isotropic =      30.1724
      Atom:   36  H
           isotropic =      29.2091
      Atom:   37  H
           isotropic =      29.4754
 Total times  cpu:     2708.5s     wall:     2713.2s
