============================== echo of input deck ==============================
echo

start molecule
memory total 40 gb

#print low

title "der2"
charge 0

geometry units angstroms print xyz autosym
#  load format xyz VX.converged_geometry_blyp_tz2p-solvent-chcl3.xyz
#  load format xyz VX.geom.xyz
 # load format xyz der1.pbe0_tz2p_good_cosmo-chcl3_optimized_geom.xyz
  load format xyz der2.geopt_freq_nmr_pbe0_tz2p_good_cosmo-chcl3_converged_geometry.xyz
end

# spinfree DK2
relativistic
   douglas-kroll
end

basis
  * library cc-pvdz-dk
end

dft
  odft # for spinspin coupling
  direct
  grid fine
  xc b3lyp
  mult 1
# Reduce output during geometry optimization
#  noprint "final vectors analysis"
end

property
  giao
  shielding 1  2
  spinspin  3  2 23 2 30 2 31
end

cosmo
  solvent chcl3
end

#task dft energy
task dft property
================================================================================

 Output coordinates in angstroms (scale by  1.889725989 to convert to a.u.)

  No.       Tag          Charge          X              Y              Z
 ---- ---------------- ---------- -------------- -------------- --------------
    1 O                    8.0000    -0.04341044    -0.73369813    -0.04085401
    2 P                   15.0000    -0.44611685     0.47703258    -1.05343430
    3 O                    8.0000     0.83720009     1.48585040    -1.04137126
    4 O                    8.0000    -1.28975000     1.37172392     0.02064437
    5 C                    6.0000     0.84108504     2.39610613     0.08887089
    6 C                    6.0000    -0.67674430     2.64706668     0.32804480
    7 C                    6.0000     1.53348750     1.72111364     1.26334319
    8 C                    6.0000     1.61284146     3.63086321    -0.32700096
    9 C                    6.0000    -1.26605170     3.67640246    -0.62378209
   10 C                    6.0000    -1.02568757     2.99451554     1.76012825
   11 H                    1.0000     1.66107846     2.42286749     2.08854573
   12 H                    1.0000     0.98002643     0.85289405     1.61631651
   13 H                    1.0000     2.52215176     1.39017053     0.94319721
   14 H                    1.0000     1.23639267     4.04556628    -1.26021739
   15 H                    1.0000     1.54820876     4.39619674     0.44881612
   16 H                    1.0000     2.66469413     3.37618356    -0.46141862
   17 H                    1.0000    -0.92294367     4.68206117    -0.37963408
   18 H                    1.0000    -1.00229208     3.45958160    -1.65979489
   19 H                    1.0000    -2.35248448     3.65478089    -0.53418895
   20 H                    1.0000    -0.51750808     3.91290247     2.06034667
   21 H                    1.0000    -2.10007263     3.16035386     1.84572717
   22 H                    1.0000    -0.74337543     2.19790863     2.44577211
   23 C                    6.0000     0.27747309    -2.00999264    -0.58709657
   24 C                    6.0000    -0.38988564    -3.07281736     0.26282843
   25 N                    7.0000    -0.04881684    -4.41716103    -0.16101358
   26 C                    6.0000     1.29387398    -4.79179613     0.23888988
   27 H                    1.0000    -2.00978854    -5.12664754     0.00115322
   28 H                    1.0000     1.51908242    -5.79393874    -0.12845467
   29 C                    6.0000    -1.00692680    -5.37744254     0.34913174
   30 H                    1.0000    -0.07040759    -2.08538831    -1.62252377
   31 H                    1.0000     1.36372261    -2.12034771    -0.58801192
   32 H                    1.0000    -1.47086993    -2.94513519     0.17386901
   33 H                    1.0000    -0.13145960    -2.89978976     1.32199975
   34 H                    1.0000    -1.02302957    -5.41235605     1.45178254
   35 H                    1.0000     1.41486849    -4.79273521     1.33573382
   36 H                    1.0000     2.03168980    -4.11023581    -0.18315365
   37 H                    1.0000    -0.75732086    -6.37537787    -0.01475063

         Total DFT energy =    -1017.330938216946

                    DFT Final Alpha Molecular Orbital Analysis
                    ------------------------------------------

 Vector    1  Occ=1.000000D+00  E=-7.738292D+01

 Vector  260  Occ=0.000000D+00  E= 2.019393D+00

 Vector  261  Occ=0.000000D+00  E= 2.024038D+00

 Vector  262  Occ=0.000000D+00  E= 2.045873D+00

 Vector  263  Occ=0.000000D+00  E= 2.064448D+00

 Vector  264  Occ=0.000000D+00  E= 2.075616D+00

 Vector  265  Occ=0.000000D+00  E= 2.077658D+00

 Vector  266  Occ=0.000000D+00  E= 2.083813D+00

 Vector  267  Occ=0.000000D+00  E= 2.098754D+00

 Vector  268  Occ=0.000000D+00  E= 2.103734D+00

 Vector  269  Occ=0.000000D+00  E= 2.107826D+00

 Vector  270  Occ=0.000000D+00  E= 2.121184D+00

 Vector  271  Occ=0.000000D+00  E= 2.162391D+00

 Vector  272  Occ=0.000000D+00  E= 2.189347D+00

 Vector  273  Occ=0.000000D+00  E= 2.216281D+00

 Vector  274  Occ=0.000000D+00  E= 2.219605D+00

 Vector  275  Occ=0.000000D+00  E= 2.237683D+00

 Vector  276  Occ=0.000000D+00  E= 2.245675D+00

 Vector  277  Occ=0.000000D+00  E= 2.255534D+00

 Vector  278  Occ=0.000000D+00  E= 2.296088D+00

 Vector  279  Occ=0.000000D+00  E= 2.311871D+00

 Vector  280  Occ=0.000000D+00  E= 2.327770D+00

 Vector  281  Occ=0.000000D+00  E= 2.345448D+00

 Vector  282  Occ=0.000000D+00  E= 2.356796D+00

 Vector  283  Occ=0.000000D+00  E= 2.372573D+00

 Vector  284  Occ=0.000000D+00  E= 2.380823D+00

 Vector  285  Occ=0.000000D+00  E= 2.403246D+00

 Vector  286  Occ=0.000000D+00  E= 2.412693D+00

 Vector  287  Occ=0.000000D+00  E= 2.418422D+00

 Vector  288  Occ=0.000000D+00  E= 2.424471D+00

 Vector  289  Occ=0.000000D+00  E= 2.428036D+00

 Vector  290  Occ=0.000000D+00  E= 2.430850D+00

 Vector  291  Occ=0.000000D+00  E= 2.438161D+00

 Vector  292  Occ=0.000000D+00  E= 2.447543D+00

 Vector  293  Occ=0.000000D+00  E= 2.452288D+00

 Vector  294  Occ=0.000000D+00  E= 2.454937D+00

 Vector  295  Occ=0.000000D+00  E= 2.465465D+00

 Vector  296  Occ=0.000000D+00  E= 2.499284D+00

 Vector  297  Occ=0.000000D+00  E= 2.502928D+00

 Vector  298  Occ=0.000000D+00  E= 2.503777D+00

 Vector  299  Occ=0.000000D+00  E= 2.508791D+00

 Vector  300  Occ=0.000000D+00  E= 2.523681D+00

 Vector  301  Occ=0.000000D+00  E= 2.531744D+00

 Vector  302  Occ=0.000000D+00  E= 2.536676D+00

 Vector  303  Occ=0.000000D+00  E= 2.551040D+00

 Vector  304  Occ=0.000000D+00  E= 2.574714D+00

 Vector  305  Occ=0.000000D+00  E= 2.593632D+00

 Vector  306  Occ=0.000000D+00  E= 2.598886D+00

 Vector  307  Occ=0.000000D+00  E= 2.647402D+00

 Vector  308  Occ=0.000000D+00  E= 2.672438D+00

 Vector  309  Occ=0.000000D+00  E= 2.719748D+00

 Vector  310  Occ=0.000000D+00  E= 2.735731D+00

 Vector  311  Occ=0.000000D+00  E= 2.752566D+00

 Vector  312  Occ=0.000000D+00  E= 2.792699D+00

 Vector  313  Occ=0.000000D+00  E= 2.794190D+00

 Vector  314  Occ=0.000000D+00  E= 2.856116D+00

 Vector  315  Occ=0.000000D+00  E= 2.865448D+00

 Vector  316  Occ=0.000000D+00  E= 2.913550D+00

 Vector  317  Occ=0.000000D+00  E= 2.945200D+00

 Vector  318  Occ=0.000000D+00  E= 2.963220D+00

 Vector  319  Occ=0.000000D+00  E= 3.003876D+00

 Vector  320  Occ=0.000000D+00  E= 3.022752D+00

 Vector  321  Occ=0.000000D+00  E= 3.044625D+00

 Vector  322  Occ=0.000000D+00  E= 3.098836D+00

 Vector  323  Occ=0.000000D+00  E= 3.150121D+00

 Vector  324  Occ=0.000000D+00  E= 3.172382D+00

 Vector  325  Occ=0.000000D+00  E= 3.196976D+00

 Vector  326  Occ=0.000000D+00  E= 3.215361D+00

 Vector  327  Occ=0.000000D+00  E= 3.254283D+00

 Vector  328  Occ=0.000000D+00  E= 3.273154D+00

 Vector  329  Occ=0.000000D+00  E= 3.294743D+00

 Vector  330  Occ=0.000000D+00  E= 3.302062D+00

 Vector  331  Occ=0.000000D+00  E= 3.337974D+00

 Vector  332  Occ=0.000000D+00  E= 3.469536D+00

 Vector  333  Occ=0.000000D+00  E= 3.487278D+00

 Vector  334  Occ=0.000000D+00  E= 3.586755D+00

 Vector  335  Occ=0.000000D+00  E= 3.868859D+00

 Vector  336  Occ=0.000000D+00  E= 4.275179D+00

 Vector  337  Occ=0.000000D+00  E= 5.783270D+00

 Vector  338  Occ=0.000000D+00  E= 5.990892D+00

 Vector  339  Occ=0.000000D+00  E= 6.008429D+00

     Multipole analysis of the density
     ---------------------------------

     L   x y z        total         alpha         beta         nuclear
     -   - - -        -----         -----         ----         -------
     0   0 0 0     -0.000000    -64.000000    -64.000000    128.000000

     1   1 0 0      0.404520      0.202260      0.202260      0.000000
     1   0 1 0      0.383947      0.191973      0.191973     -0.000000
     1   0 0 1      0.655759      0.327879      0.327879     -0.000000

     2   2 0 0    -74.148509   -294.089993   -294.089993    514.031477
     2   1 1 0      0.086847     -1.122400     -1.122400      2.331647
     2   1 0 1      0.604650      0.043782      0.043782      0.517085
     2   0 2 0    -61.332604  -2184.053274  -2184.053274   4306.773944
     2   0 1 1      1.287997     -0.036968     -0.036968      1.361932

      Atom:    1  P
           isotropic =     246.6569
 Total times  cpu:     7594.0s     wall:     7601.4s
