============================== echo of input deck ==============================
echo

start molecule

memory total 180 gb

print low

title "Quartz ecp"
charge 0

geometry units angstroms print xyz autosym
  load format xyz Qgeom.xyz
end

basis
 * library crenbl_ecp
end

ecp
  Si library crenbl_ecp
end

dft
  xc revpbe cpbe96
  disp vdw 4
  maxiter 100
end

driver
  maxiter 999
  xyz Qgeomconv
end

task dft optimize

#task dft frequencies

================================================================================

         Total DFT energy =    -4946.049865848654
@ Step       Energy      Delta E   Gmax     Grms     Xrms     Xmax   Walltime
@ ---- ---------------- -------- -------- -------- -------- -------- --------
@    0   -4946.04986585  0.0D+00  0.00028  0.00004  0.00000  0.00000    262.4
         Total DFT energy =    -4946.049832910387
         Total DFT energy =    -4946.049867323130
@    1   -4946.04986732 -1.5D-06  0.00034  0.00005  0.00137  0.00746    540.6
         Total DFT energy =    -4946.049838845618
         Total DFT energy =    -4946.049874925870
@    2   -4946.04987493 -7.6D-06  0.00042  0.00007  0.00208  0.00928    847.7
         Total DFT energy =    -4946.049775088013
         Total DFT energy =    -4946.049875064462
@    3   -4946.04987506 -1.4D-07  0.00030  0.00005  0.00146  0.00733   1128.4
         Total DFT energy =    -4946.049820400312
         Total DFT energy =    -4946.049876610079
@    4   -4946.04987661 -1.5D-06  0.00030  0.00006  0.00221  0.00927   1400.1
         Total DFT energy =    -4946.049713666413
         Total DFT energy =    -4946.049875849367
@    5   -4946.04987585  7.6D-07  0.00031  0.00005  0.00125  0.00547   2133.9
         Total DFT energy =    -4946.049771582686
         Total DFT energy =    -4946.049883970842
@    6   -4946.04988397 -8.1D-06  0.00029  0.00006  0.00201  0.00742   2426.5
         Total DFT energy =    -4946.049863950295
         Total DFT energy =    -4946.049889245114
@    7   -4946.04988925 -5.3D-06  0.00030  0.00006  0.00213  0.01073   2707.4
         Total DFT energy =    -4946.049837437280
         Total DFT energy =    -4946.049891139504
@    8   -4946.04989114 -1.9D-06  0.00034  0.00005  0.00163  0.00666   2983.0
         Total DFT energy =    -4946.049846354974
         Total DFT energy =    -4946.049891161827
@    9   -4946.04989116 -2.2D-08  0.00036  0.00005  0.00148  0.00696   3259.4
         Total DFT energy =    -4946.049822326651
         Total DFT energy =    -4946.049890150938
@   10   -4946.04989015  1.0D-06  0.00023  0.00004  0.00111  0.00484   3537.4
         Total DFT energy =    -4946.049869805080
         Total DFT energy =    -4946.049894727981
@   11   -4946.04989473 -4.6D-06  0.00034  0.00005  0.00213  0.01044   3810.6
         Total DFT energy =    -4946.049868859580
         Total DFT energy =    -4946.049893953474
@   12   -4946.04989395  7.7D-07  0.00021  0.00004  0.00117  0.00734   4091.6
         Total DFT energy =    -4946.049866862952
         Total DFT energy =    -4946.049898445362
@   13   -4946.04989845 -4.5D-06  0.00031  0.00005  0.00237  0.00783   4373.0
         Total DFT energy =    -4946.049886687153
         Total DFT energy =    -4946.049898701232
@   14   -4946.04989870 -2.6D-07  0.00029  0.00004  0.00135  0.00755   4644.8
         Total DFT energy =    -4946.049867726815
         Total DFT energy =    -4946.049901905313
@   15   -4946.04990191 -3.2D-06  0.00040  0.00005  0.00217  0.01526   4932.5
         Total DFT energy =    -4946.049872749500
         Total DFT energy =    -4946.049899767531
@   16   -4946.04989977  2.1D-06  0.00026  0.00004  0.00162  0.01281   5202.2
         Total DFT energy =    -4946.049897426878
         Total DFT energy =  -4946.049897426878
@   17   -4946.04989743  2.3D-06  0.00061  0.00013  0.00921  0.06870   5399.6
         Total DFT energy =    -4946.049876561556
         Total DFT energy =    -4946.049896577162
@   18   -4946.04989658  8.5D-07  0.00053  0.00009  0.00244  0.01166   6300.2
         Total DFT energy =    -4946.049886094050
         Total DFT energy =    -4946.049905959127
@   19   -4946.04990596 -9.4D-06  0.00039  0.00007  0.00365  0.01235   6580.0
         Total DFT energy =    -4946.049892389470
         Total DFT energy =    -4946.049906941258
@   20   -4946.04990694 -9.8D-07  0.00020  0.00003  0.00208  0.00815   6856.6
         Total DFT energy =    -4946.049901811417
         Total DFT energy =    -4946.049906147175
@   21   -4946.04990615  7.9D-07  0.00012  0.00002  0.00115  0.00505   7114.4
         Total DFT energy =    -4946.049902833958
         Total DFT energy =  -4946.049902833958
@   22   -4946.04990283  3.3D-06  0.00030  0.00005  0.00339  0.02199   7304.7
         Total DFT energy =    -4946.049900316430
         Total DFT energy =  -4946.049900316430
@   23   -4946.04990032  2.5D-06  0.00021  0.00005  0.00356  0.02947   7498.0
         Total DFT energy =    -4946.049903011884
         Total DFT energy =  -4946.049903011884
@   24   -4946.04990301 -2.7D-06  0.00029  0.00005  0.00450  0.04178   7709.6
         Total DFT energy =    -4946.049917891021
         Total DFT energy =    -4946.049915802156
@   25   -4946.04991580 -1.3D-05  0.00107  0.00013  0.01066  0.09112   7981.1
         Total DFT energy =    -4946.049909034777
         Total DFT energy =    -4946.049917392360
@   26   -4946.04991739 -1.6D-06  0.00056  0.00009  0.00224  0.01045   8223.7
         Total DFT energy =    -4946.049878798709
         Total DFT energy =    -4946.049916253869
@   27   -4946.04991625  1.1D-06  0.00036  0.00005  0.00166  0.00677  16065.2
         Total DFT energy =    -4946.049901227227
         Total DFT energy =    -4946.049914204221
@   28   -4946.04991420  2.0D-06  0.00023  0.00003  0.00130  0.00963  18591.2
         Total DFT energy =    -4946.049882289972
         Total DFT energy =    -4946.049910427570
@   29   -4946.04991043  3.8D-06  0.00013  0.00002  0.00157  0.01383  19940.3
         Total DFT energy =    -4946.049883408174
         Total DFT energy =    -4946.049908023157
@   30   -4946.04990802  2.4D-06  0.00010  0.00002  0.00232  0.02268  20183.5
         Total DFT energy =    -4946.049871690600
         Total DFT energy =    -4946.049904043459
@   31   -4946.04990404  4.0D-06  0.00012  0.00002  0.00137  0.01168  20433.0
         Total DFT energy =    -4946.049902651470
         Total DFT energy =  -4946.049902651470
@   32   -4946.04990265  1.4D-06  0.00050  0.00006  0.00465  0.03542  20617.1
         Total DFT energy =    -4946.049889011883
         Total DFT energy =    -4946.049900081362
@   33   -4946.04990008  2.6D-06  0.00048  0.00005  0.00064  0.00491  21266.9
         Total DFT energy =    -4946.049902581959
         Total DFT energy =  -4946.049902581959
@   34   -4946.04990258 -2.5D-06  0.00017  0.00004  0.00328  0.01759  21426.2
         Total DFT energy =    -4946.049901822018
         Total DFT energy =  -4946.049901822018
@   35   -4946.04990182  7.6D-07  0.00015  0.00003  0.00397  0.03856  21587.5
         Total DFT energy =    -4946.049906845732
         Total DFT energy =    -4946.049907503082
@   36   -4946.04990750 -5.7D-06  0.00016  0.00004  0.00418  0.02984  21804.0
         Total DFT energy =    -4946.049916473559
         Total DFT energy =    -4946.049920875019
@   37   -4946.04992088 -1.3D-05  0.00036  0.00005  0.00423  0.03353  22036.5
         Total DFT energy =    -4946.049925394647
         Total DFT energy =  -4946.049925394647
@   38   -4946.04992539 -4.5D-06  0.00018  0.00003  0.00237  0.01057  22201.7
         Total DFT energy =    -4946.049925516560
         Total DFT energy =  -4946.049925516560
@   39   -4946.04992552 -1.2D-07  0.00015  0.00002  0.00175  0.00856  22368.5
         Total DFT energy =    -4946.049926184289
         Total DFT energy =  -4946.049926184289
@   40   -4946.04992618 -6.7D-07  0.00015  0.00002  0.00146  0.00714  22520.9
         Total DFT energy =    -4946.049927123320
         Total DFT energy =  -4946.049927123320
@   41   -4946.04992712 -9.4D-07  0.00009  0.00002  0.00189  0.01111  22675.7
         Total DFT energy =    -4946.049931144567
         Total DFT energy =  -4946.049931144567
@   42   -4946.04993114 -4.0D-06  0.00012  0.00002  0.00126  0.00754  22832.9
         Total DFT energy =    -4946.049932250615
         Total DFT energy =  -4946.049932250615
@   43   -4946.04993225 -1.1D-06  0.00008  0.00002  0.00146  0.01090  22987.4
         Total DFT energy =    -4946.049936071908
         Total DFT energy =  -4946.049936071908
@   44   -4946.04993607 -3.8D-06  0.00005  0.00001  0.00086  0.00370  23157.0
         Total DFT energy =    -4946.049938476066
         Total DFT energy =  -4946.049938476066
@   45   -4946.04993848 -2.4D-06  0.00007  0.00001  0.00118  0.00704  23311.3
         Total DFT energy =    -4946.049940878394
         Total DFT energy =  -4946.049940878394
@   46   -4946.04994088 -2.4D-06  0.00011  0.00002  0.00096  0.00576  23475.0
         Total DFT energy =    -4946.049941676323
         Total DFT energy =  -4946.049941676323
@   47   -4946.04994168 -8.0D-07  0.00005  0.00001  0.00075  0.00500  23662.6
         Total DFT energy =    -4946.049939565750
         Total DFT energy =  -4946.049939565750
@   48   -4946.04993957  2.1D-06  0.00005  0.00001  0.00095  0.00399  23823.5
         Total DFT energy =    -4946.049939940149
         Total DFT energy =  -4946.049939940149
@   49   -4946.04993994 -3.7D-07  0.00007  0.00001  0.00078  0.00460  23975.8
         Total DFT energy =    -4946.049942667389
         Total DFT energy =  -4946.049942667389
@   50   -4946.04994267 -2.7D-06  0.00006  0.00001  0.00103  0.00935  24124.6
         Total DFT energy =    -4946.049943695602
         Total DFT energy =  -4946.049943695602
@   51   -4946.04994370 -1.0D-06  0.00004  0.00001  0.00061  0.00264  24260.8
         Total DFT energy =    -4946.049945156690
         Total DFT energy =  -4946.049945156690
@   52   -4946.04994516 -1.5D-06  0.00006  0.00001  0.00080  0.00288  24406.9
         Total DFT energy =    -4946.049947446725
         Total DFT energy =  -4946.049947446725
@   53   -4946.04994745 -2.3D-06  0.00019  0.00002  0.00086  0.00387  24572.6
         Total DFT energy =    -4946.049947077267
         Total DFT energy =  -4946.049947077267
@   54   -4946.04994708  3.7D-07  0.00010  0.00001  0.00036  0.00182  24716.2
         Total DFT energy =    -4946.049942186037
         Total DFT energy =  -4946.049942186037
@   55   -4946.04994219  4.9D-06  0.00006  0.00001  0.00087  0.00419  24862.0
         Total DFT energy =    -4946.049944933970
         Total DFT energy =  -4946.049944933970
@   56   -4946.04994493 -2.7D-06  0.00027  0.00002  0.00054  0.00240  25025.8
         Total DFT energy =    -4946.049946121158
         Total DFT energy =  -4946.049946121158
@   57   -4946.04994612 -1.2D-06  0.00019  0.00002  0.00036  0.00163  25172.7
@   57   -4946.04994612 -1.2D-06  0.00019  0.00002  0.00036  0.00163  25172.8

 Output coordinates in angstroms (scale by  1.889725989 to convert to a.u.)

  No.       Tag          Charge          X              Y              Z
 ---- ---------------- ---------- -------------- -------------- --------------
    1 O                    8.0000     4.79286767    -1.54877638    -3.88943004
    2 H                    1.0000    -1.85673821     5.77425324    -0.93082584
    3 H                    1.0000     4.90476110    -9.65217168     2.75921278
    4 Si                  14.0000    -2.21142077     8.54285002     2.42887256
    5 Si                  14.0000     0.63150450     7.68609838    -1.02055349
    6 Si                  14.0000     3.11540000     4.26458117    -4.65102765
    7 H                    1.0000     1.72531301    -6.16970944    -1.02166304
    8 Si                  14.0000    -3.67614506     4.81765480     0.50745718
    9 Si                  14.0000     0.37384017     2.43727513    -1.49440627
   10 Si                  14.0000     4.25718055    -0.54255769    -2.69137027
   11 H                    1.0000    -1.77758792    -3.36474398    -3.79813423
   12 Si                  14.0000    -4.40673210     0.51112035    -2.63294073
   13 Si                  14.0000    -0.51660752    -2.40509110    -1.45068950
   14 Si                  14.0000     3.76291427    -4.76462087     0.28157107
   15 H                    1.0000    -1.78995317     7.82034232    -0.20754977
   16 Si                  14.0000    -3.76101324    -4.88624743    -3.99702124
   17 Si                  14.0000    -0.47332477    -7.16812293    -1.64754054
   18 Si                  14.0000     2.51992711    -8.58280258     2.64688321
   19 O                    8.0000    -2.75141027     0.66390673    -2.85612131
   20 O                    8.0000     1.88451134     4.60069742     4.36236705
   21 O                    8.0000     6.20465452     4.72792191     0.74137092
   22 O                    8.0000    -0.66906318    -6.37978889    -3.08678252
   23 O                    8.0000     1.06143294    -2.60022562    -1.97910211
   24 O                    8.0000    -2.52241881     1.69601094     3.75983136
   25 O                    8.0000     3.10066810     0.87773747     3.13323005
   26 O                    8.0000     2.01792988    -8.35323870     1.09082675
   27 O                    8.0000     4.66101127    -6.10989038    -0.05617148
   28 O                    8.0000    -4.59260579    -2.57231189     1.61697212
   29 O                    8.0000    -0.59715196    -2.69457571     3.32209780
   30 H                    1.0000    -2.06044334     1.32815431    -2.67425199
   31 H                    1.0000    -4.42933866    -5.77564768    -6.35601763
   32 O                    8.0000     2.52794558    -4.59016869    -0.82843910
   33 O                    8.0000     1.12066763     1.92054908    -2.88899615
   34 O                    8.0000    -3.06383009     4.93732994     4.75495744
   35 O                    8.0000    -4.90511166    -1.06493945    -2.69294921
   36 Si                  14.0000    -4.96263593    -3.73998542     0.50771466
   37 Si                  14.0000    -0.71590910    -4.37102946     3.17881935
   38 O                    8.0000     1.33961795     4.63446047     1.68930390
   39 O                    8.0000     5.27087295     3.13003055    -1.25809014
   40 H                    1.0000     5.05278808    -6.96254324    -0.22852074
   41 H                    1.0000    -3.82230089     7.61341064     0.67703053
   42 Si                  14.0000    -2.21760301     5.44822403     3.42252139
   43 O                    8.0000    -4.79010224    -3.68010205    -3.46426432
   44 O                    8.0000    -1.51228983    -6.37134623    -0.57155924
   45 O                    8.0000    -2.23796409    -4.18739536    -4.03621418
   46 Si                  14.0000     1.90037716     4.86845062     0.14044206
   47 O                    8.0000    -1.31782341    -4.76043858     1.68377141
   48 H                    1.0000    -1.03501840    -5.69273640    -3.66533930
   49 H                    1.0000     3.78513845    -4.49109609     5.28030397
   50 Si                  14.0000     5.34148727     2.59269270    -2.82872428
   51 O                    8.0000    -3.54053639    -4.58679596     0.21689872
   52 O                    8.0000     1.07350009    -6.90307256    -1.06768397
   53 O                    8.0000     1.42818446     6.36253593    -0.41962991
   54 O                    8.0000     3.10432904    -4.92977189     1.80513513
   55 O                    8.0000    -6.36789009     1.57971141     1.01182456
   56 O                    8.0000     4.04260354    -9.24950018     2.71574581
   57 O                    8.0000     4.26234066     3.48309727    -3.74197203
   58 H                    1.0000    -3.44167265    10.40103419     3.77815075
   59 O                    8.0000    -1.08837096     0.49478321     1.79024339
   60 H                    1.0000     5.07333984    -2.17282854    -4.55397617
   61 H                    1.0000    -1.96504995    -1.00626008    -2.96671490
   62 O                    8.0000    -3.78113876    -6.10505052    -2.87540616
   63 O                    8.0000     4.05494919    -1.04507276     1.41686210
   64 H                    1.0000    -6.82186477    -5.36701166     1.35058315
   65 O                    8.0000    -4.34837593     3.31852363     0.36525824
   66 O                    8.0000    -0.81671517    -8.78311046    -1.71146105
   67 H                    1.0000    -2.27708521    -5.32886398     5.03142290
   68 O                    8.0000     1.46303803    -9.53139822     3.50919048
   69 H                    1.0000     7.76272525     2.81170201    -3.77591883
   70 H                    1.0000     7.56757898    -1.33972675     0.92096656
   71 H                    1.0000    -8.12158671    -2.47554330    -3.19929149
   72 H                    1.0000     2.50828655     4.88678896     5.02495445
   73 H                    1.0000     6.92482363     5.28619946     1.02040742
   74 O                    8.0000    -2.99316486     4.99445264     2.01178039
   75 O                    8.0000     1.15311158     3.74080155    -0.83100136
   76 H                    1.0000    -2.53513032     2.44567138     4.35429518
   77 H                    1.0000     2.61611496     1.64143783     3.47132771
   78 O                    8.0000     3.22978022    -4.60577611     4.51095763
   79 O                    8.0000     0.84499464    -4.92439152     3.30233922
   80 O                    8.0000    -4.20491506    -5.43619902    -5.49437881
   81 O                    8.0000    -0.99595563     7.52979881    -0.70889180
   82 H                    1.0000    -5.75500040     6.29766502     0.13334324
   83 O                    8.0000     4.84675928     1.00419172    -2.86799331
   84 O                    8.0000     0.65006729     2.47949139     3.16990490
   85 O                    8.0000     4.68854329     2.52417053     1.35718098
   86 O                    8.0000     2.31007100     5.39256866    -3.75507998
   87 H                    1.0000    -4.15479953    -1.94142079     2.21004917
   88 O                    8.0000    -2.78619724    -1.00581185     3.12912712
   89 O                    8.0000     2.61407980    -1.83203836     3.56730255
   90 H                    1.0000     1.45972396     2.22601341    -3.75866017
   91 O                    8.0000    -0.69549471     4.79650347     3.43290952
   92 O                    8.0000    -6.14725895    -4.76578336     1.04847640
   93 O                    8.0000    -1.69262562    -4.96696274     4.37050270
   94 O                    8.0000    -4.86541713     5.99698949     0.31687060
   95 O                    8.0000     3.52781748     4.59336471     0.13541409
   96 H                    1.0000     0.05776551    -1.98977716     3.34585240
   97 O                    8.0000    -5.41753278    -3.06650014    -0.94946627
   98 O                    8.0000    -1.21251868     2.86604916    -1.80910310
   99 H                    1.0000     1.73070215    -1.98673406    -2.36270136
  100 H                    1.0000    -3.58387985     4.79648339     5.54321171
  101 O                    8.0000     6.87192424     2.74708503    -3.44274847
  102 H                    1.0000     1.67220098    -7.98225315     0.25353320
  103 O                    8.0000    -4.70071473     1.09649783    -1.09769898
  104 O                    8.0000    -5.21780987     1.41919004    -3.75863672
  105 H                    1.0000    -7.24120413     1.38083935     1.34004318
  106 Si                  14.0000    -5.60106830    -2.57605206    -2.52917746
  107 O                    8.0000    -0.43349466    -1.26048295    -0.23529262
  108 O                    8.0000     0.38268354     1.23220459    -0.35844916
  109 O                    8.0000    -3.74442606     0.98365579     1.46954450
  110 Si                  14.0000    -1.92248705    -4.93167303     0.13947016
  111 H                    1.0000     1.88129380     6.05394206    -3.20277575
  112 H                    1.0000     2.74457177    -2.66981468     4.03247155
  113 H                    1.0000     0.12216384     1.70247026     2.94852714
  114 Si                  14.0000     2.43946117    -5.38819884     3.25600255
  115 O                    8.0000    -1.17175532    -3.76497104    -0.79549303
  116 O                    8.0000    -3.02198156     9.71128760     3.27040814
  117 O                    8.0000     2.58271578    -0.42736953    -2.72918351
  118 H                    1.0000     1.95862791    -3.96142982    -1.33356127
  119 O                    8.0000     4.65056557    -3.35613583     0.26509897
  120 H                    1.0000    -5.68743787     1.89635906    -4.43731645
  121 H                    1.0000     0.89108404     8.03504879    -3.58428011
  122 Si                  14.0000    -4.82610761     1.71165945     0.43182644
  123 H                    1.0000    -1.86987232     3.54583638    -1.56674656
  124 H                    1.0000     1.55471376     2.65023580    -5.90526633
  125 O                    8.0000    -0.71430430     9.03345879     1.94150127
  126 Si                  14.0000     0.07824104    -0.00501275     0.70161998
  127 O                    8.0000     1.41339804    -0.42647069     1.58518454
  128 O                    8.0000    -3.05663366     8.09552925     1.02955430
  129 O                    8.0000     1.20108693     9.08212913    -0.28880847
  130 Si                  14.0000     5.07324991    -1.74666619     0.29289738
  131 H                    1.0000     1.90424277     0.27849734    -2.78046619
  132 O                    8.0000    -7.20193705    -2.48155314    -2.94945535
  133 O                    8.0000    -2.49226431     5.09450823    -0.64207442
  134 O                    8.0000     0.90716207     7.77412354    -2.66445203
  135 O                    8.0000     6.65780515    -1.50616486     0.68922255
  136 O                    8.0000    -2.14477519     7.10926022     3.29074909
  137 O                    8.0000     3.80904814     4.95504466    -5.99325946
  138 O                    8.0000     2.02381252     3.08763868    -5.19424662
  139 Si                  14.0000     0.81666164     4.13673575     3.18923571
  140 Si                  14.0000    -2.58043742     0.54649359     2.56950589
  141 H                    1.0000     0.07856305     9.18663487     1.41730054
  142 H                    1.0000     1.75251427     9.84601892    -0.12466003
  143 Si                  14.0000     4.96702045     3.73384286     0.26705415
  144 Si                  14.0000     2.83290442    -0.62361949     2.45235775
  145 H                    1.0000     4.27014368     5.35967341    -6.72325931
  146 O                    8.0000     2.56684293    -7.03756569     3.32493614
  147 O                    8.0000    -1.44312051    -1.78718123    -2.68779138
  148 H                    1.0000     4.36507956     1.85739618     1.98092704
  149 O                    8.0000     4.72427138    -1.12111698    -1.20705378
  150 H                    1.0000    -2.22638669    -1.77550891     3.35781353
  151 H                    1.0000     0.82109656   -10.05833720     3.97577054
  152 H                    1.0000    -0.95836446    -9.72542740    -1.73242812
  153 H                    1.0000    -3.63063209    -6.68591236    -2.13153763

 Total times  cpu:    23837.4s     wall:    25173.0s
