============================== echo of input deck ==============================
echo

start molecule

print low

title "Hg@Quartz ecp"
charge 0

geometry units angstroms print xyz autosym
  load format xyz HgQgeom.xyz
end

basis
 * library lanl2dz_ecp
end

ecp
  Si library lanl2dz_ecp
  Hg library lanl2dz_ecp
end

dft
  xc b3lyp
  maxiter 100
end

driver
  maxiter 999
  xyz HgQgeomconv
end

task dft optimize

#task dft frequencies

================================================================================

         Total DFT energy =    -6048.642651460188
@ Step       Energy      Delta E   Gmax     Grms     Xrms     Xmax   Walltime
@ ---- ---------------- -------- -------- -------- -------- -------- --------
@    0   -6048.64265146  0.0D+00  0.00089  0.00006  0.00000  0.00000     86.7
         Total DFT energy =    -6048.642624704662
         Total DFT energy =    -6048.642660580463
@    1   -6048.64266058 -9.1D-06  0.00165  0.00013  0.00281  0.02233    201.2
         Total DFT energy =    -6048.640928221903
         Total DFT energy =    -6048.642670661822
@    2   -6048.64267066 -1.0D-05  0.00057  0.00010  0.00234  0.02632    313.0
         Total DFT energy =    -6048.641252446167
         Total DFT energy =    -6048.642757646416
@    3   -6048.64275765 -8.7D-05  0.00106  0.00013  0.00262  0.02939    426.8
         Total DFT energy =    -6048.641825749968
         Total DFT energy =    -6048.642771139639
@    4   -6048.64277114 -1.3D-05  0.00137  0.00011  0.00412  0.05039    540.0
         Total DFT energy =    -6048.642238815137
         Total DFT energy =    -6048.642795107451
@    5   -6048.64279511 -2.4D-05  0.00209  0.00014  0.00450  0.05677    646.6
         Total DFT energy =    -6048.642319231538
         Total DFT energy =    -6048.642690947116
@    6   -6048.64269095  1.0D-04  0.00247  0.00016  0.00490  0.07642    751.9
         Total DFT energy =    -6048.642808828525
         Total DFT energy =    -6048.642228688517
@    7   -6048.64222869  4.6D-04  0.00923  0.00110  0.03098  0.45479    863.8
         Total DFT energy =    -6048.642420510922
         Total DFT energy =    -6048.642460614850
@    8   -6048.64246061 -2.3D-04  0.00469  0.00058  0.01564  0.11391    968.3
         Total DFT energy =    -6048.640828666757
         Total DFT energy =    -6048.642609383740
@    9   -6048.64260938 -1.5D-04  0.00237  0.00037  0.01276  0.05748   1079.6
         Total DFT energy =    -6048.634859701586
         Total DFT energy =    -6048.642655183230
@   10   -6048.64265518 -4.6D-05  0.00134  0.00023  0.00488  0.03329   1205.3
         Total DFT energy =    -6048.641202347546
         Total DFT energy =    -6048.642688944103
@   11   -6048.64268894 -3.4D-05  0.00103  0.00017  0.00706  0.07580   1333.2
         Total DFT energy =    -6048.642852019777
         Total DFT energy =    -6048.642345959288
@   12   -6048.64234596  3.4D-04  0.00585  0.00096  0.03125  0.24151   1446.2
         Total DFT energy =    -6048.642794553194
         Total DFT energy =    -6048.642860047046
@   13   -6048.64286005 -5.1D-04  0.00284  0.00051  0.02245  0.15723   1572.6
         Total DFT energy =    -6048.627770641273
         Total DFT energy =    -6048.642960397101
@   14   -6048.64296040 -1.0D-04  0.00281  0.00031  0.01155  0.04906   1700.4
         Total DFT energy =    -6048.641175719640
         Total DFT energy =    -6048.642988700965
@   15   -6048.64298870 -2.8D-05  0.00115  0.00015  0.00488  0.01582   1808.4
         Total DFT energy =    -6048.642872472457
         Total DFT energy =    -6048.642997757805
@   16   -6048.64299776 -9.1D-06  0.00103  0.00011  0.00258  0.01177   1919.0
         Total DFT energy =    -6048.642952922830
         Total DFT energy =    -6048.643001146622
@   17   -6048.64300115 -3.4D-06  0.00061  0.00007  0.00193  0.01753   2038.5
         Total DFT energy =    -6048.642979988021
         Total DFT energy =    -6048.643005364280
@   18   -6048.64300536 -4.2D-06  0.00032  0.00004  0.00330  0.03994   2150.5
         Total DFT energy =    -6048.642909372556
         Total DFT energy =    -6048.643006980496
@   19   -6048.64300698 -1.6D-06  0.00034  0.00004  0.00086  0.01039   2264.1
         Total DFT energy =    -6048.642905209563
         Total DFT energy =    -6048.643008366238
@   20   -6048.64300837 -1.4D-06  0.00032  0.00004  0.00094  0.01332   2377.1
         Total DFT energy =    -6048.642914611326
         Total DFT energy =    -6048.643010928106
@   21   -6048.64301093 -2.6D-06  0.00030  0.00004  0.00154  0.02197   2495.2
         Total DFT energy =    -6048.642873325611
         Total DFT energy =    -6048.643013043176
@   22   -6048.64301304 -2.1D-06  0.00028  0.00004  0.00122  0.01944   2609.3
         Total DFT energy =    -6048.642922173025
         Total DFT energy =    -6048.643015093454
@   23   -6048.64301509 -2.1D-06  0.00025  0.00003  0.00120  0.01857   2717.3
         Total DFT energy =    -6048.642925645072
         Total DFT energy =    -6048.643015475649
@   24   -6048.64301548 -3.8D-07  0.00023  0.00003  0.00059  0.00887   2824.1
         Total DFT energy =    -6048.642932209055
         Total DFT energy =    -6048.643016124937
@   25   -6048.64301612 -6.5D-07  0.00021  0.00003  0.00057  0.00818   2928.5
         Total DFT energy =    -6048.642937166707
         Total DFT energy =    -6048.643016484959
@   26   -6048.64301648 -3.6D-07  0.00020  0.00003  0.00030  0.00474   3033.0
         Total DFT energy =    -6048.642931443326
         Total DFT energy =    -6048.643016736187
@   27   -6048.64301674 -2.5D-07  0.00018  0.00002  0.00041  0.00611   3141.5
         Total DFT energy =    -6048.642936138618
         Total DFT energy =    -6048.643016951202
@   28   -6048.64301695 -2.2D-07  0.00017  0.00002  0.00024  0.00349   3242.7
         Total DFT energy =    -6048.642937948840
         Total DFT energy =    -6048.643017188570
@   29   -6048.64301719 -2.4D-07  0.00015  0.00002  0.00030  0.00428   3355.9
         Total DFT energy =    -6048.642936986726
         Total DFT energy =    -6048.643017490420
@   30   -6048.64301749 -3.0D-07  0.00014  0.00002  0.00024  0.00382   3469.1
         Total DFT energy =    -6048.642940024223
         Total DFT energy =    -6048.642939753910
@   31   -6048.64293975  7.8D-05  0.00016  0.00003  0.00017  0.00259   3586.4
         Total DFT energy =    -6048.642902658419
         Total DFT energy =    -6048.642941328202
@   32   -6048.64294133 -1.6D-06  0.00017  0.00003  0.00223  0.03160   3700.4
         Total DFT energy =    -6048.642932579984
         Total DFT energy =    -6048.642941553782
@   33   -6048.64294155 -2.3D-07  0.00028  0.00004  0.00081  0.00924   3813.2
         Total DFT energy =    -6048.642937677501
         Total DFT energy =  -6048.642937677501
@   34   -6048.64293768  3.9D-06  0.00042  0.00006  0.00277  0.03635   3880.4
         Total DFT energy =    -6048.642941930353
         Total DFT energy =  -6048.642941930353
@   35   -6048.64294193 -4.3D-06  0.00018  0.00003  0.00201  0.02467   3954.5
         Total DFT energy =    -6048.642941220787
         Total DFT energy =  -6048.642941220787
@   36   -6048.64294122  7.1D-07  0.00026  0.00005  0.00253  0.02517   4022.6
         Total DFT energy =    -6048.642944868774
         Total DFT energy =  -6048.642944868774
@   37   -6048.64294487 -3.6D-06  0.00009  0.00002  0.00155  0.00831   4090.1
         Total DFT energy =    -6048.642942864772
         Total DFT energy =  -6048.642942864772
@   38   -6048.64294286  2.0D-06  0.00025  0.00004  0.00164  0.01131   4160.9
         Total DFT energy =    -6048.642946193802
         Total DFT energy =  -6048.642946193802
@   39   -6048.64294619 -3.3D-06  0.00011  0.00002  0.00155  0.01437   4223.0
         Total DFT energy =    -6048.642946469354
         Total DFT energy =  -6048.642946469354
@   40   -6048.64294647 -2.8D-07  0.00020  0.00005  0.00238  0.02496   4285.7
         Total DFT energy =    -6048.642949666042
         Total DFT energy =  -6048.642949666042
@   41   -6048.64294967 -3.2D-06  0.00008  0.00002  0.00125  0.00636   4344.9
         Total DFT energy =    -6048.642950594884
         Total DFT energy =  -6048.642950594884
@   42   -6048.64295059 -9.3D-07  0.00022  0.00003  0.00136  0.00860   4403.6
         Total DFT energy =    -6048.643026220016
         Total DFT energy =    -6048.643022228440
@   43   -6048.64302223 -7.2D-05  0.00049  0.00009  0.00463  0.06194   4495.9
         Total DFT energy =    -6048.642762620475
         Total DFT energy =    -6048.643021754837
@   44   -6048.64302175  4.7D-07  0.00048  0.00009  0.00010  0.00117   4587.0
         Total DFT energy =    -6048.642762817442
         Total DFT energy =    -6048.643022235949
@   45   -6048.64302224 -4.8D-07  0.00047  0.00009  0.00010  0.00121   4930.0
         Total DFT energy =    -6048.642766315297
         Total DFT energy =    -6048.643022394303
@   46   -6048.64302239 -1.6D-07  0.00045  0.00008  0.00021  0.00253   5032.6
         Total DFT energy =    -6048.642766700250
         Total DFT energy =    -6048.643026568148
@   47   -6048.64302657 -4.2D-06  0.00041  0.00007  0.00071  0.00995   5134.6
         Total DFT energy =    -6048.643037043850
         Total DFT energy =    -6048.643038298567
@   48   -6048.64303830 -1.2D-05  0.00032  0.00005  0.00390  0.04602   5226.1
         Total DFT energy =    -6048.642773663280
         Total DFT energy =    -6048.643037881404
@   49   -6048.64303788  4.2D-07  0.00031  0.00005  0.00009  0.00126   5315.9
@   49   -6048.64303788  4.2D-07  0.00031  0.00005  0.00009  0.00126   5315.9

 Output coordinates in angstroms (scale by  1.889725989 to convert to a.u.)

  No.       Tag          Charge          X              Y              Z
 ---- ---------------- ---------- -------------- -------------- --------------
    1 O                    8.0000     5.39209749    -1.02369750     1.70813876
    2 H                    1.0000    -1.67342812     5.04495925    -1.69686382
    3 H                    1.0000     2.63870009    -7.27308175     4.27380269
    4 Si                  14.0000    -4.74130061     7.56286588    -0.00910767
    5 Si                  14.0000    -0.39357155     6.96074919     0.18473411
    6 Si                  14.0000     4.51448963     5.25538337     0.63093852
    7 H                    1.0000     2.05603090    -5.91902728     0.45899216
    8 Si                  14.0000    -3.70411777     3.98951334    -2.25047693
    9 Si                  14.0000     0.51668127     2.38939049    -0.31350782
   10 Si                  14.0000     4.08111244    -0.01274537     1.83727455
   11 H                    1.0000     1.63338927    -3.20687318    -3.59665818
   12 Si                  14.0000    -1.33004515     0.18559432    -4.58780479
   13 Si                  14.0000     0.71094676    -2.41898606    -1.19718088
   14 Si                  14.0000     2.25883453    -4.53186463     2.90839014
   15 H                    1.0000    -2.41292099     6.90550265    -1.19034808
   16 Si                  14.0000     1.09352949    -4.58716271    -5.46682610
   17 Si                  14.0000     0.98022335    -7.08550298    -1.38063429
   18 Si                  14.0000     0.60734479    -8.34365594     3.72260818
   19 O                    8.0000    -0.06000949     0.31829805    -3.48480463
   20 O                    8.0000    -3.72495059     4.08925609     4.56253727
   21 O                    8.0000     1.72432902     4.46639054     5.75023587
   22 O                    8.0000     1.77561899    -6.44322487    -2.68326949
   23 O                    8.0000     2.10579225    -2.43779902    -0.23569364
   24 O                    8.0000    -4.90306062     0.82717155     1.06296233
   25 O                    8.0000    -1.29979496     0.55146881     4.31140668
   26 O                    8.0000     0.72172722    -8.33841191     2.07288371
   27 O                    8.0000     3.24335089    -5.76860927     3.49473266
   28 O                    8.0000    -4.41789627    -2.79874885    -2.50707998
   29 O                    8.0000    -3.36318528    -3.14104720     1.99314580
   30 H                    1.0000     0.04350444     1.14118079    -2.92031300
   31 H                    1.0000     2.69979284    -4.60383029    -7.21614582
   32 O                    8.0000     2.46868879    -4.46781699     1.26372535
   33 O                    8.0000     2.19610015     2.36293962    -0.32224850
   34 O                    8.0000    -6.77759857     3.82245208     0.56585832
   35 O                    8.0000    -1.25958947    -1.32425866    -5.20629106
   36 Si                  14.0000    -3.56559182    -3.97435867    -3.29183212
   37 Si                  14.0000    -2.89169308    -4.72701096     1.64659612
   38 O                    8.0000    -1.87012379     4.02825382     2.58175440
   39 O                    8.0000     3.12075639     3.21905068     3.78091775
   40 H                    1.0000     4.16264735    -5.90984860     3.21394956
   41 H                    1.0000    -4.15351460     6.72557756    -2.21136553
   42 Si                  14.0000    -5.25903543     4.47273846     0.59088243
   43 O                    8.0000    -0.35550923    -3.81821106    -5.61672480
   44 O                    8.0000    -0.56114988    -6.41871756    -1.32854840
   45 O                    8.0000     1.74639830    -4.12527753    -3.97951723
   46 Si                  14.0000    -0.39244624     4.42927032     2.03325526
   47 O                    8.0000    -2.03332326    -4.77582732     0.26718054
   48 H                    1.0000     1.89572062    -5.49591901    -2.99208502
   49 H                    1.0000    -1.00489924    -4.82879466     6.19342616
   50 Si                  14.0000     4.53982604     2.99013734     2.98643160
   51 O                    8.0000    -2.34880477    -4.55251998    -2.31913950
   52 O                    8.0000     1.66710898    -6.77969774     0.13295411
   53 O                    8.0000    -0.34826923     6.00550337     1.52180041
   54 O                    8.0000     0.72901363    -4.93526127     3.32672101
   55 O                    8.0000    -5.45310297     0.57163640    -4.08494498
   56 O                    8.0000     2.07054276    -8.05444696     4.47127840
   57 O                    8.0000     4.71545385     4.13080516     1.81560309
   58 H                    1.0000    -6.90020392     8.60454873    -0.07740629
   59 O                    8.0000    -2.47854380     0.07257371     0.25884039
   60 H                    1.0000     5.94164400    -1.23804073     0.94199275
   61 H                    1.0000     0.71841822    -1.00667610    -3.11107372
   62 O                    8.0000     1.03550333    -6.24487982    -5.41656316
   63 O                    8.0000     0.78796059    -1.19129314     4.21909047
   64 H                    1.0000    -5.25833509    -5.66385325    -3.35362951
   65 O                    8.0000    -4.03451732     2.59155200    -3.00641054
   66 O                    8.0000     0.90957144    -8.72381390    -1.57809896
   67 H                    1.0000    -4.96599431    -5.88674420     2.02287629
   68 O                    8.0000    -0.06471726    -9.74724414     4.27811576
   69 H                    1.0000     6.69702614     2.97525712     4.05109782
   70 H                    1.0000     3.80578732    -1.49791691     6.09960376
   71 H                    1.0000    -2.58983411    -3.39976611    -7.81754226
   72 H                    1.0000    -3.96418231     4.97211198     4.87380396
   73 H                    1.0000     2.26414710     5.23982651     5.95989826
   74 O                    8.0000    -4.39440036     4.09670246    -0.77136684
   75 O                    8.0000     0.00891943     3.62255461     0.65560241
   76 H                    1.0000    -4.46206679     1.15492210     1.89756046
   77 H                    1.0000    -0.63172571     1.23871669     4.59511883
   78 O                    8.0000    -1.11352188    -4.57629372     5.26279834
   79 O                    8.0000    -1.91765081    -5.20151024     2.88151322
   80 O                    8.0000     1.98738056    -4.10519738    -6.79059735
   81 O                    8.0000    -1.48129415     6.48468456    -0.96843457
   82 H                    1.0000    -4.61970709     5.27757838    -4.04485825
   83 O                    8.0000     4.51871299     1.52117971     2.24696548
   84 O                    8.0000    -3.38377793     1.83216988     3.10758905
   85 O                    8.0000     0.88501698     2.06385323     4.90883136
   86 O                    8.0000     3.02593949     4.90635601    -0.06105611
   87 H                    1.0000    -4.47777997    -2.46227670    -1.56942955
   88 O                    8.0000    -4.42979130    -1.74874586    -0.03007112
   89 O                    8.0000    -1.78789413    -2.19626892     4.13775473
   90 H                    1.0000     2.66159874     3.25474763    -0.30798776
   91 O                    8.0000    -4.42519695     3.97946352     1.91328556
   92 O                    8.0000    -4.55205312    -5.20196658    -3.82550711
   93 O                    8.0000    -4.22859960    -5.67582217     1.43550772
   94 O                    8.0000    -4.30474261     5.31726211    -3.12696294
   95 O                    8.0000     0.68509668     4.11590608     3.22635775
   96 H                    1.0000    -2.95285600    -2.66906852     2.76803969
   97 O                    8.0000    -2.81435609    -3.38360619    -4.62593930
   98 O                    8.0000    -0.12405900     2.49600408    -1.84930514
   99 H                    1.0000     2.62127207    -1.58725785    -0.09644689
  100 H                    1.0000    -6.99108465     2.88185359     0.68835670
  101 O                    8.0000     5.74145666     3.09992262     4.12078528
  102 H                    1.0000     1.14753430    -7.76371057     1.37346495
  103 O                    8.0000    -2.73021987     0.44198283    -3.76455684
  104 O                    8.0000    -1.21033539     1.34580574    -5.77281666
  105 H                    1.0000    -5.84360121    -0.30463004    -4.22788509
  106 Si                  14.0000    -1.67656363    -2.85016182    -5.67742009
  107 O                    8.0000    -0.37367121    -1.42449360    -0.47662334
  108 O                    8.0000     0.03663097     0.99590391     0.38542952
  109 O                    8.0000    -4.35860058     0.39506487    -1.59100243
  110 Si                  14.0000    -1.26467798    -4.94590245    -1.17111889
  111 H                    1.0000     2.30523238     5.58523185    -0.20627318
  112 H                    1.0000    -1.62360059    -2.98164692     4.73166124
  113 H                    1.0000    -2.73392552     1.28167895     3.63443770
  114 Si                  14.0000    -0.70047467    -5.51886388     3.91475273
  115 O                    8.0000     0.04821373    -3.91290247    -1.20308001
  116 O                    8.0000    -5.99202190     8.56641294    -0.40624716
  117 O                    8.0000     3.24669550    -0.00659995     0.38166272
  118 H                    1.0000     2.39448306    -3.65456015     0.64427238
  119 O                    8.0000     2.59570184    -3.09911316     3.64908652
  120 H                    1.0000    -0.94649175     1.24821091    -6.69838203
  121 H                    1.0000     1.45965785     7.33614823    -1.25404173
  122 Si                  14.0000    -4.15816802     0.93978985    -3.12751953
  123 H                    1.0000    -0.88764871     3.13424698    -2.08079771
  124 H                    1.0000     6.10261682     4.48884845    -1.03390524
  125 O                    8.0000    -3.64946856     8.21796429     1.03539508
  126 Si                  14.0000    -0.93355995    -0.31339293     0.57116874
  127 O                    8.0000    -0.80731587    -0.85760152     2.10566554
  128 O                    8.0000    -3.82431073     7.21195420    -1.39887291
  129 O                    8.0000    -0.85925391     8.51423701     0.63417037
  130 Si                  14.0000     2.39098807    -1.54725778     4.15838400
  131 H                    1.0000     2.86869537     0.84855192     0.00013539
  132 O                    8.0000    -2.27630388    -2.70731984    -7.21939919
  133 O                    8.0000    -2.03935513     4.18630742    -2.08872136
  134 O                    8.0000     1.17019015     6.84158910    -0.46742784
  135 O                    8.0000     2.96356456    -1.26055835     5.68808276
  136 O                    8.0000    -5.33720807     6.12639710     0.56555411
  137 O                    8.0000     4.46690154     6.80649150     1.21921126
  138 O                    8.0000     5.76957395     5.19175222    -0.45419783
  139 Si                  14.0000    -3.36341456     3.49770384     3.06134073
  140 Si                  14.0000    -4.09871088    -0.10478102    -0.05362724
  141 H                    1.0000    -2.72978724     8.54109777     0.92666862
  142 H                    1.0000    -0.40039898     9.11226374     1.24629479
  143 Si                  14.0000     1.63160349     3.49969388     4.41331112
  144 Si                  14.0000    -0.77061155    -0.94035862     3.74117458
  145 H                    1.0000     5.18117073     7.45702608     1.26902708
  146 O                    8.0000    -0.44500446    -7.10487008     4.21100764
  147 O                    8.0000     1.07548499    -1.88417895    -2.72807274
  148 H                    1.0000     1.29058896     1.46678141     5.56516297
  149 O                    8.0000     3.15350325    -0.59626131     3.05799851
  150 H                    1.0000    -4.17646859    -2.31633615     0.76024983
  151 H                    1.0000     0.20361305   -10.65886983     4.10780953
  152 H                    1.0000     0.60637465    -9.38929004    -0.94347756
  153 H                    1.0000     1.19096902    -6.77310000    -4.60299286
  154 Hg                  80.0000     6.67255385     2.55875181    -3.15390419

 Total times  cpu:     4819.9s     wall:     5315.9s
