============================== echo of input deck ==============================
echo

start molecule

memory total 40 gb

print low

title "der2"
charge 0

dft
  mult 1
end

geometry units angstroms print xyz autosym
  load format xyz der2.geopt_freq_nmr_pbe0_tz2p_good_cosmo-chcl3_converged_geometry.xyz
end

basis
  * library 6-311++G(2d,2p)
end

dft
  direct
  grid fine
  xc b3lyp
  mult 1
# Reduce output during geometry optimization
  noprint "final vectors analysis"
end

#end

driver
  tight
  maxiter 9999
  xyz der2_b3lyp_geom_6-311++g2d_2p
end

cosmo
  solvent chcl3
end

task dft optimize
================================================================================

         Total DFT energy =    -1016.402167148281
@ Step       Energy      Delta E   Gmax     Grms     Xrms     Xmax   Walltime
@ ---- ---------------- -------- -------- -------- -------- -------- --------
@    0   -1016.40216715  0.0D+00  0.01160  0.00238  0.00000  0.00000   5295.5
         Total DFT energy =    -1016.403753809786
         Total DFT energy =  -1016.403753809786
@    1   -1016.40375381 -1.6D-03  0.00314  0.00041  0.05331  0.15381   8444.0
         Total DFT energy =    -1016.403920353203
         Total DFT energy =    -1016.403927201930
@    2   -1016.40392720 -1.7D-04  0.00082  0.00017  0.01435  0.03458  14227.0
         Total DFT energy =    -1016.403961050721
         Total DFT energy =    -1016.403965829821
@    3   -1016.40396583 -3.9D-05  0.00053  0.00010  0.01578  0.04631  20056.1
         Total DFT energy =    -1016.403979758818
         Total DFT energy =    -1016.403984941658
@    4   -1016.40398494 -1.9D-05  0.00061  0.00009  0.01161  0.03131  25842.3
         Total DFT energy =    -1016.403995580940
         Total DFT energy =    -1016.404000279833
@    5   -1016.40400028 -1.5D-05  0.00044  0.00008  0.01550  0.03755  31614.8
         Total DFT energy =    -1016.404007097887
         Total DFT energy =    -1016.404011455385
@    6   -1016.40401146 -1.1D-05  0.00039  0.00007  0.01164  0.03248  37400.6
         Total DFT energy =    -1016.404015116114
         Total DFT energy =  -1016.404015116114
@    7   -1016.40401512 -3.7D-06  0.00023  0.00004  0.00403  0.00984  40543.8
         Total DFT energy =    -1016.404019655687
         Total DFT energy =  -1016.404019655687
@    8   -1016.40401966 -4.5D-06  0.00013  0.00003  0.00976  0.02288  43694.8
         Total DFT energy =    -1016.404022205861
         Total DFT energy =  -1016.404022205861
@    9   -1016.40402221 -2.6D-06  0.00023  0.00004  0.00464  0.01394  46835.8
         Total DFT energy =    -1016.404028583273
         Total DFT energy =    -1016.404029772639
@   10   -1016.40402977 -7.6D-06  0.00044  0.00007  0.02356  0.07251  52584.1
         Total DFT energy =    -1016.404033682711
         Total DFT energy =  -1016.404033682711
@   11   -1016.40403368 -3.9D-06  0.00037  0.00005  0.00434  0.01519  55751.2
         Total DFT energy =    -1016.404040548784
         Total DFT energy =  -1016.404040548784
@   12   -1016.40404055 -6.9D-06  0.00011  0.00003  0.01459  0.05163  58945.1
         Total DFT energy =    -1016.404041914343
         Total DFT energy =  -1016.404041914343
@   13   -1016.40404191 -1.4D-06  0.00013  0.00002  0.00591  0.02025  62473.1
         Total DFT energy =    -1016.404045997324
         Total DFT energy =  -1016.404045997324
@   14   -1016.40404600 -4.1D-06  0.00028  0.00003  0.01763  0.05986  65869.9
         Total DFT energy =    -1016.404049989711
         Total DFT energy =  -1016.404049989711
@   15   -1016.40404999 -4.0D-06  0.00035  0.00005  0.01925  0.06218  69405.3
         Total DFT energy =    -1016.404055159657
         Total DFT energy =    -1016.404055172807
@   16   -1016.40405517 -5.2D-06  0.00031  0.00006  0.03334  0.10247  75789.2
         Total DFT energy =    -1016.404059304184
         Total DFT energy =  -1016.404059304184
@   17   -1016.40405930 -4.1D-06  0.00021  0.00004  0.00406  0.01068  79282.8
         Total DFT energy =    -1016.404062824877
         Total DFT energy =  -1016.404062824877
@   18   -1016.40406282 -3.5D-06  0.00009  0.00001  0.00568  0.01555  82659.9
         Total DFT energy =    -1016.404063596998
         Total DFT energy =  -1016.404063596998
@   19   -1016.40406360 -7.7D-07  0.00011  0.00001  0.00219  0.00606  86164.6
         Total DFT energy =    -1016.404065594650
         Total DFT energy =  -1016.404065594650
@   20   -1016.40406559 -2.0D-06  0.00009  0.00002  0.00670  0.02081  89599.6
         Total DFT energy =    -1016.404067278002
         Total DFT energy =  -1016.404067278002
@   21   -1016.40406728 -1.7D-06  0.00009  0.00002  0.00740  0.02289  93098.3
         Total DFT energy =    -1016.404069521734
         Total DFT energy =  -1016.404069521734
@   22   -1016.40406952 -2.2D-06  0.00010  0.00002  0.00715  0.02314  96476.1
         Total DFT energy =    -1016.404071923348
         Total DFT energy =  -1016.404071923348
@   23   -1016.40407192 -2.4D-06  0.00015  0.00002  0.01012  0.03293  99926.5
         Total DFT energy =    -1016.404073061189
         Total DFT energy =  -1016.404073061189
@   24   -1016.40407306 -1.1D-06  0.00011  0.00001  0.00334  0.01544 103378.0
         Total DFT energy =    -1016.404073664505
         Total DFT energy =  -1016.404073664505
@   25   -1016.40407366 -6.0D-07  0.00004  0.00001  0.00130  0.00434 106828.6
         Total DFT energy =    -1016.404073882934
         Total DFT energy =  -1016.404073882934
@   26   -1016.40407388 -2.2D-07  0.00002  0.00000  0.00066  0.00211 110284.9
         Total DFT energy =    -1016.404074033448
         Total DFT energy =  -1016.404074033448
@   27   -1016.40407403 -1.5D-07  0.00004  0.00001  0.00135  0.00374 113704.1
         Total DFT energy =    -1016.404074143729
         Total DFT energy =  -1016.404074143729
@   28   -1016.40407414 -1.1D-07  0.00004  0.00001  0.00135  0.00321 117098.2
         Total DFT energy =    -1016.404074227366
         Total DFT energy =  -1016.404074227366
@   29   -1016.40407423 -8.4D-08  0.00002  0.00000  0.00136  0.00404 120525.7
         Total DFT energy =    -1016.404074236792
         Total DFT energy =  -1016.404074236792
@   30   -1016.40407424 -9.4D-09  0.00001  0.00000  0.00079  0.00258 123848.4
         Total DFT energy =    -1016.404074193234
         Total DFT energy =  -1016.404074193234
@   31   -1016.40407419  4.4D-08  0.00003  0.00000  0.00136  0.00385 128406.8
         Total DFT energy =    -1016.404074087179
         Total DFT energy =  -1016.404074087179
@   32   -1016.40407409  1.1D-07  0.00004  0.00001  0.00173  0.00458 132204.8
         Total DFT energy =    -1016.404074076056
         Total DFT energy =  -1016.404074076056
@   33   -1016.40407408  1.1D-08  0.00002  0.00000  0.00049  0.00138 134854.4
         Total DFT energy =    -1016.404074084314
         Total DFT energy =  -1016.404074084314
@   34   -1016.40407408 -8.3D-09  0.00000  0.00000  0.00028  0.00077 137002.6
         Total DFT energy =    -1016.404074097434
         Total DFT energy =  -1016.404074097434
@   35   -1016.40407410 -1.3D-08  0.00000  0.00000  0.00018  0.00060 139050.0
         Total DFT energy =    -1016.404074102523
         Total DFT energy =  -1016.404074102523
@   36   -1016.40407410 -5.1D-09  0.00000  0.00000  0.00007  0.00022 141085.9
         Total DFT energy =    -1016.404074103642
         Total DFT energy =  -1016.404074103642
@   37   -1016.40407410 -1.1D-09  0.00000  0.00000  0.00002  0.00006 143121.7
         Total DFT energy =    -1016.404074107359
         Total DFT energy =  -1016.404074107359
@   38   -1016.40407411 -3.7D-09  0.00000  0.00000  0.00003  0.00009 145182.4
         Total DFT energy =    -1016.404074111922
         Total DFT energy =  -1016.404074111922
@   39   -1016.40407411 -4.6D-09  0.00000  0.00000  0.00005  0.00014 147228.0
         Total DFT energy =    -1016.404074113305
         Total DFT energy =  -1016.404074113305
@   40   -1016.40407411 -1.4D-09  0.00000  0.00000  0.00002  0.00007 149267.7
         Total DFT energy =    -1016.404074117506
         Total DFT energy =  -1016.404074117506
@   41   -1016.40407412 -4.2D-09  0.00000  0.00000  0.00003  0.00009 151316.1
         Total DFT energy =    -1016.404074120074
         Total DFT energy =  -1016.404074120074
@   42   -1016.40407412 -2.6D-09  0.00000  0.00000  0.00002  0.00005 153362.5
@   42   -1016.40407412 -2.6D-09  0.00000  0.00000  0.00002  0.00005 153362.5

 Output coordinates in angstroms (scale by  1.889725989 to convert to a.u.)

  No.       Tag          Charge          X              Y              Z
 ---- ---------------- ---------- -------------- -------------- --------------
    1 O                    8.0000     0.21774792    -0.76145356     0.03220239
    2 P                   15.0000    -0.30277778     0.42835094    -0.98448215
    3 O                    8.0000     0.92181372     1.53060388    -1.01706620
    4 O                    8.0000    -1.18060514     1.28162385     0.12194530
    5 C                    6.0000     0.87236594     2.49598151     0.09133945
    6 C                    6.0000    -0.66324591     2.63175053     0.36471907
    7 C                    6.0000     1.65853597     1.92148513     1.27076526
    8 C                    6.0000     1.53429105     3.77490072    -0.40266107
    9 C                    6.0000    -1.37374531     3.57333969    -0.60900168
   10 C                    6.0000    -1.01202531     2.99707270     1.80145831
   11 H                    1.0000     1.75718620     2.66169738     2.06380145
   12 H                    1.0000     1.18849975     1.03062928     1.67893149
   13 H                    1.0000     2.65847950     1.65707843     0.92894393
   14 H                    1.0000     1.10392193     4.11342659    -1.34155892
   15 H                    1.0000     1.42493680     4.56608238     0.33940443
   16 H                    1.0000     2.59901084     3.60055831    -0.55427380
   17 H                    1.0000    -1.11349225     4.61249985    -0.41331190
   18 H                    1.0000    -1.12589323     3.34272087    -1.64425117
   19 H                    1.0000    -2.44969082     3.46248061    -0.48102979
   20 H                    1.0000    -0.57770255     3.96322078     2.05951087
   21 H                    1.0000    -2.09351552     3.07283928     1.90719206
   22 H                    1.0000    -0.64857642     2.25253070     2.50487631
   23 C                    6.0000     0.47920383    -2.07092868    -0.51778501
   24 C                    6.0000    -0.33364525    -3.09676258     0.26170538
   25 N                    7.0000    -0.08266036    -4.46585915    -0.18961001
   26 C                    6.0000     1.20644660    -4.97665769     0.27490666
   27 H                    1.0000    -2.11146698    -5.00273819    -0.17109888
   28 H                    1.0000     1.36075164    -5.98159219    -0.11656650
   29 C                    6.0000    -1.16195338    -5.35868796     0.22669768
   30 H                    1.0000     0.20737536    -2.10138583    -1.57474345
   31 H                    1.0000     1.54930386    -2.25097411    -0.43421705
   32 H                    1.0000    -1.38991400    -2.87433451     0.10847095
   33 H                    1.0000    -0.12977681    -2.97939241     1.33801874
   34 H                    1.0000    -1.25167741    -5.42977119     1.32249666
   35 H                    1.0000     1.26182587    -5.02311875     1.37442544
   36 H                    1.0000     2.02173042    -4.34969600    -0.08004360
   37 H                    1.0000    -0.97812865    -6.36023885    -0.16167056

 Total times  cpu:   153157.6s     wall:   153362.5s
