============================== echo of input deck ==============================
echo

start molecule

memory total 40 gb

print low

title "der2"
charge 0

dft
  mult 1
end

geometry units angstroms print xyz autosym
  load format xyz der2.geopt_freq_nmr_pbe0_tz2p_good_cosmo-chcl3_converged_geometry.xyz
end

basis
  * library 6-311++G(2d,2p)
end

dft
  direct
  grid fine
  xc pbe0
  mult 1
# Reduce output during geometry optimization
  noprint "final vectors analysis"
end

#end

driver
  tight
  maxiter 9999
  xyz der2_pbe0_geom_6-311++g2d_2p
end

cosmo
  solvent chcl3
end

task dft optimize
================================================================================

         Total DFT energy =    -1015.460205178750
@ Step       Energy      Delta E   Gmax     Grms     Xrms     Xmax   Walltime
@ ---- ---------------- -------- -------- -------- -------- -------- --------
@    0   -1015.46020518  0.0D+00  0.00488  0.00056  0.00000  0.00000   7837.3
         Total DFT energy =    -1015.460385384594
         Total DFT energy =    -1015.460411757246
@    1   -1015.46041176 -2.1D-04  0.00100  0.00015  0.03958  0.10527  12552.5
         Total DFT energy =    -1015.460439450517
         Total DFT energy =    -1015.460441860175
@    2   -1015.46044186 -3.0D-05  0.00050  0.00008  0.00733  0.01857  17234.8
         Total DFT energy =    -1015.460454252653
         Total DFT energy =    -1015.460466074818
@    3   -1015.46046607 -2.4D-05  0.00104  0.00014  0.01458  0.03652  21994.7
         Total DFT energy =    -1015.460485077401
         Total DFT energy =    -1015.460498132919
@    4   -1015.46049813 -3.2D-05  0.00103  0.00015  0.02817  0.07421  26785.1
         Total DFT energy =    -1015.460516254377
         Total DFT energy =    -1015.460521059861
@    5   -1015.46052106 -2.3D-05  0.00050  0.00009  0.01793  0.04212  31574.5
         Total DFT energy =    -1015.460527541167
         Total DFT energy =    -1015.460529583506
@    6   -1015.46052958 -8.5D-06  0.00039  0.00005  0.00550  0.01998  36374.2
         Total DFT energy =    -1015.460533171375
         Total DFT energy =  -1015.460533171375
@    7   -1015.46053317 -3.6D-06  0.00021  0.00004  0.00348  0.01067  38967.2
         Total DFT energy =    -1015.460538300987
         Total DFT energy =    -1015.460538813155
@    8   -1015.46053881 -5.6D-06  0.00029  0.00005  0.01174  0.04039  43715.4
         Total DFT energy =    -1015.460541422735
         Total DFT energy =  -1015.460541422735
@    9   -1015.46054142 -2.6D-06  0.00023  0.00004  0.00375  0.01257  46296.5
         Total DFT energy =    -1015.460550498110
         Total DFT energy =  -1015.460550498110
@   10   -1015.46055050 -9.1D-06  0.00023  0.00004  0.02311  0.07726  48865.8
         Total DFT energy =    -1015.460552949403
         Total DFT energy =  -1015.460552949403
@   11   -1015.46055295 -2.5D-06  0.00019  0.00003  0.00797  0.02585  51429.0
         Total DFT energy =    -1015.460558114800
         Total DFT energy =    -1015.460558754691
@   12   -1015.46055875 -5.8D-06  0.00012  0.00003  0.02720  0.08688  56201.7
         Total DFT energy =    -1015.460561041661
         Total DFT energy =  -1015.460561041661
@   13   -1015.46056104 -2.3D-06  0.00012  0.00002  0.00521  0.01562  58790.1
         Total DFT energy =    -1015.460567396958
         Total DFT energy =  -1015.460567396958
@   14   -1015.46056740 -6.4D-06  0.00020  0.00003  0.02898  0.08468  61376.5
         Total DFT energy =    -1015.460569376863
         Total DFT energy =  -1015.460569376863
@   15   -1015.46056938 -2.0D-06  0.00011  0.00002  0.00697  0.02365  63927.5
         Total DFT energy =    -1015.460571839871
         Total DFT energy =  -1015.460571839871
@   16   -1015.46057184 -2.5D-06  0.00007  0.00002  0.00477  0.01415  66466.7
         Total DFT energy =    -1015.460574966932
         Total DFT energy =  -1015.460574966932
@   17   -1015.46057497 -3.1D-06  0.00020  0.00003  0.01005  0.02855  69050.5
         Total DFT energy =    -1015.460577972667
         Total DFT energy =  -1015.460577972667
@   18   -1015.46057797 -3.0D-06  0.00021  0.00003  0.01201  0.03393  71616.7
         Total DFT energy =    -1015.460581721246
         Total DFT energy =  -1015.460581721246
@   19   -1015.46058172 -3.7D-06  0.00014  0.00002  0.01609  0.04628  74210.5
         Total DFT energy =    -1015.460584904218
         Total DFT energy =  -1015.460584904218
@   20   -1015.46058490 -3.2D-06  0.00005  0.00002  0.01246  0.03858  76795.2
         Total DFT energy =    -1015.460587073627
         Total DFT energy =  -1015.460587073627
@   21   -1015.46058707 -2.2D-06  0.00007  0.00002  0.00622  0.01928  79389.6
         Total DFT energy =    -1015.460588698578
         Total DFT energy =  -1015.460588698578
@   22   -1015.46058870 -1.6D-06  0.00010  0.00002  0.00372  0.01215  81956.0
         Total DFT energy =    -1015.460589598722
         Total DFT energy =  -1015.460589598722
@   23   -1015.46058960 -9.0D-07  0.00006  0.00001  0.00277  0.00944  84532.0
         Total DFT energy =    -1015.460590071903
         Total DFT energy =  -1015.460590071903
@   24   -1015.46059007 -4.7D-07  0.00002  0.00001  0.00186  0.00632  87092.1
         Total DFT energy =    -1015.460590275369
         Total DFT energy =  -1015.460590275369
@   25   -1015.46059028 -2.0D-07  0.00003  0.00001  0.00140  0.00469  89649.1
         Total DFT energy =    -1015.460590398227
         Total DFT energy =  -1015.460590398227
@   26   -1015.46059040 -1.2D-07  0.00003  0.00001  0.00103  0.00421  92233.3
         Total DFT energy =    -1015.460590501673
         Total DFT energy =  -1015.460590501673
@   27   -1015.46059050 -1.0D-07  0.00002  0.00001  0.00085  0.00371  94832.9
         Total DFT energy =    -1015.460590623586
         Total DFT energy =  -1015.460590623586
@   28   -1015.46059062 -1.2D-07  0.00002  0.00001  0.00122  0.00561  97414.0
         Total DFT energy =    -1015.460590698141
         Total DFT energy =  -1015.460590698141
@   29   -1015.46059070 -7.5D-08  0.00002  0.00001  0.00098  0.00447  99963.4
         Total DFT energy =    -1015.460590728868
         Total DFT energy =  -1015.460590728868
@   30   -1015.46059073 -3.1D-08  0.00002  0.00000  0.00058  0.00197 102531.4
         Total DFT energy =    -1015.460590726807
         Total DFT energy =  -1015.460590726807
@   31   -1015.46059073  2.1D-09  0.00001  0.00000  0.00056  0.00134 105119.9
         Total DFT energy =    -1015.460590745355
         Total DFT energy =  -1015.460590745355
@   32   -1015.46059075 -1.9D-08  0.00000  0.00000  0.00051  0.00158 107706.1
         Total DFT energy =    -1015.460590748334
         Total DFT energy =  -1015.460590748334
@   33   -1015.46059075 -3.0D-09  0.00001  0.00000  0.00031  0.00094 110284.6
         Total DFT energy =    -1015.460590777128
         Total DFT energy =  -1015.460590777128
@   34   -1015.46059078 -2.9D-08  0.00000  0.00000  0.00052  0.00146 112853.8
         Total DFT energy =    -1015.460590771835
         Total DFT energy =  -1015.460590771835
@   35   -1015.46059077  5.3D-09  0.00000  0.00000  0.00028  0.00071 115417.8
         Total DFT energy =    -1015.460590773038
         Total DFT energy =  -1015.460590773038
@   36   -1015.46059077 -1.2D-09  0.00000  0.00000  0.00006  0.00017 118016.7
         Total DFT energy =    -1015.460590785540
         Total DFT energy =  -1015.460590785540
@   37   -1015.46059079 -1.3D-08  0.00000  0.00000  0.00029  0.00080 120590.3
         Total DFT energy =    -1015.460590782614
         Total DFT energy =  -1015.460590782614
@   38   -1015.46059078  2.9D-09  0.00000  0.00000  0.00024  0.00063 123149.9
         Total DFT energy =    -1015.460590783302
         Total DFT energy =  -1015.460590783302
@   39   -1015.46059078 -6.9D-10  0.00000  0.00000  0.00005  0.00012 125711.8
         Total DFT energy =    -1015.460590786578
         Total DFT energy =  -1015.460590786578
@   40   -1015.46059079 -3.3D-09  0.00000  0.00000  0.00004  0.00012 128277.4
         Total DFT energy =    -1015.460590789346
         Total DFT energy =  -1015.460590789346
@   41   -1015.46059079 -2.8D-09  0.00000  0.00000  0.00002  0.00006 130832.2
         Total DFT energy =    -1015.460590792205
         Total DFT energy =  -1015.460590792205
@   42   -1015.46059079 -2.9D-09  0.00000  0.00000  0.00002  0.00006 133394.5
         Total DFT energy =    -1015.460590792846
         Total DFT energy =  -1015.460590792846
@   43   -1015.46059079 -6.4D-10  0.00000  0.00000  0.00002  0.00007 135968.9
         Total DFT energy =    -1015.460590806078
         Total DFT energy =  -1015.460590806078
@   44   -1015.46059081 -1.3D-08  0.00000  0.00000  0.00035  0.00097 138558.0
         Total DFT energy =    -1015.460590801298
         Total DFT energy =  -1015.460590801298
@   45   -1015.46059080  4.8D-09  0.00000  0.00000  0.00023  0.00061 141141.2
         Total DFT energy =    -1015.460590802800
         Total DFT energy =  -1015.460590802800
@   46   -1015.46059080 -1.5D-09  0.00000  0.00000  0.00005  0.00013 143713.5
         Total DFT energy =    -1015.460590804054
         Total DFT energy =  -1015.460590804054
@   47   -1015.46059080 -1.3D-09  0.00000  0.00000  0.00005  0.00017 146269.3
         Total DFT energy =    -1015.460590805775
         Total DFT energy =  -1015.460590805775
@   48   -1015.46059081 -1.7D-09  0.00000  0.00000  0.00002  0.00006 148845.6
         Total DFT energy =    -1015.460590807843
         Total DFT energy =  -1015.460590807843
@   49   -1015.46059081 -2.1D-09  0.00000  0.00000  0.00002  0.00007 151395.1
         Total DFT energy =    -1015.460590809114
         Total DFT energy =  -1015.460590809114
@   50   -1015.46059081 -1.3D-09  0.00000  0.00000  0.00002  0.00005 153970.6
@   50   -1015.46059081 -1.3D-09  0.00000  0.00000  0.00002  0.00005 153970.6

 Output coordinates in angstroms (scale by  1.889725989 to convert to a.u.)

  No.       Tag          Charge          X              Y              Z
 ---- ---------------- ---------- -------------- -------------- --------------
    1 O                    8.0000     0.22729455    -0.75823745     0.06926281
    2 P                   15.0000    -0.31038429     0.41484351    -0.94083230
    3 O                    8.0000     0.90279584     1.51408094    -1.00395542
    4 O                    8.0000    -1.16753527     1.26332733     0.17245633
    5 C                    6.0000     0.86269640     2.46841292     0.09353018
    6 C                    6.0000    -0.65950770     2.60699818     0.37165841
    7 C                    6.0000     1.63970984     1.89674642     1.26923771
    8 C                    6.0000     1.51730742     3.74346667    -0.39410048
    9 C                    6.0000    -1.36582214     3.51876208    -0.62010471
   10 C                    6.0000    -0.99073057     3.01479929     1.79190067
   11 H                    1.0000     1.74170863     2.64103245     2.05972675
   12 H                    1.0000     1.16001751     1.00967785     1.67941513
   13 H                    1.0000     2.63935119     1.62361447     0.92919106
   14 H                    1.0000     1.08709976     4.07911778    -1.33600728
   15 H                    1.0000     1.39779818     4.53364199     0.34934320
   16 H                    1.0000     2.58515061     3.57577477    -0.53991573
   17 H                    1.0000    -1.10328373     4.56334480    -0.45142912
   18 H                    1.0000    -1.11614419     3.25880868    -1.64989100
   19 H                    1.0000    -2.44308702     3.41186734    -0.48890575
   20 H                    1.0000    -0.54628797     3.98644484     2.01511463
   21 H                    1.0000    -2.07179124     3.10129363     1.90631458
   22 H                    1.0000    -0.62247676     2.28777529     2.51343209
   23 C                    6.0000     0.48479474    -2.04823681    -0.49434616
   24 C                    6.0000    -0.33518169    -3.07866601     0.25618968
   25 N                    7.0000    -0.08157956    -4.43201099    -0.20617488
   26 C                    6.0000     1.19776826    -4.93689542     0.25958292
   27 H                    1.0000    -2.10319695    -4.96876306    -0.18020895
   28 H                    1.0000     1.35764312    -5.94187219    -0.13362466
   29 C                    6.0000    -1.14850202    -5.32220806     0.21163964
   30 H                    1.0000     0.22218008    -2.06242535    -1.55667710
   31 H                    1.0000     1.55504912    -2.23822453    -0.40752334
   32 H                    1.0000    -1.39105870    -2.85146047     0.09277293
   33 H                    1.0000    -0.14574251    -2.97491648     1.33859734
   34 H                    1.0000    -1.23144186    -5.39403953     1.30926890
   35 H                    1.0000     1.24692874    -4.98644883     1.36064043
   36 H                    1.0000     2.01586123    -4.30734524    -0.08903473
   37 H                    1.0000    -0.96446693    -6.32479905    -0.17810369

 Total times  cpu:   153710.6s     wall:   153970.6s
