============================== echo of input deck ==============================
echo

start molecule

memory total 40 gb

print low

title "der2"
charge 0

# spin-spin coupling only for odft
dft
  odft
  mult 1
end

relativistic
   douglas-kroll
end

geometry units angstroms print xyz autosym
#  load format xyz VX.converged_geometry_blyp_tz2p-solvent-chcl3.xyz
#  load format xyz VX.geom.xyz
 # load format xyz der1.pbe0_tz2p_good_cosmo-chcl3_optimized_geom.xyz
  load format xyz der2.geopt_freq_nmr_pbe0_tz2p_good_cosmo-chcl3_converged_geometry.xyz
end

basis
  * library cc-pvdz-dk
end

dft
  direct
  grid fine
  xc b3lyp
  mult 1
# Reduce output during geometry optimization
  noprint "final vectors analysis"
end

driver
  tight
  maxiter 9999
  xyz der2_geom_ccpvdz-dk
end

property
  giao
  shielding 1  2
  spinspin  3  2 23 2 30 2 31
end

cosmo
  solvent chcl3
end

task dft optimize
task dft property
================================================================================

         Total DFT energy =    -1017.330938182042
@ Step       Energy      Delta E   Gmax     Grms     Xrms     Xmax   Walltime
@ ---- ---------------- -------- -------- -------- -------- -------- --------
@    0   -1017.33093818  0.0D+00  0.03500  0.00502  0.00000  0.00000   2254.0
         Total DFT energy =    -1017.337817038593
         Total DFT energy =    -1017.337944706503
@    1   -1017.33794471 -7.0D-03  0.00679  0.00088  0.06700  0.18142   4818.4
         Total DFT energy =    -1017.338438462357
         Total DFT energy =    -1017.338458810115
@    2   -1017.33845881 -5.1D-04  0.00192  0.00026  0.02335  0.06745   7444.0
         Total DFT energy =    -1017.338511782775
         Total DFT energy =    -1017.338513161098
@    3   -1017.33851316 -5.4D-05  0.00060  0.00011  0.01691  0.05438  10054.9
         Total DFT energy =    -1017.338529289910
         Total DFT energy =    -1017.338537595006
@    4   -1017.33853760 -2.4D-05  0.00075  0.00010  0.01665  0.03951  12597.6
         Total DFT energy =    -1017.338556085081
         Total DFT energy =    -1017.338574611104
@    5   -1017.33857461 -3.7D-05  0.00106  0.00018  0.02469  0.07321  15216.7
         Total DFT energy =    -1017.338601206368
         Total DFT energy =    -1017.338626429876
@    6   -1017.33862643 -5.2D-05  0.00074  0.00014  0.03871  0.10362  17832.8
         Total DFT energy =    -1017.338643918139
         Total DFT energy =    -1017.338651119816
@    7   -1017.33865112 -2.5D-05  0.00040  0.00008  0.01748  0.04276  20363.1
         Total DFT energy =    -1017.338659576898
         Total DFT energy =    -1017.338664031841
@    8   -1017.33866403 -1.3D-05  0.00045  0.00006  0.01938  0.04869  22986.7
         Total DFT energy =    -1017.338669014601
         Total DFT energy =  -1017.338669014601
@    9   -1017.33866901 -5.0D-06  0.00035  0.00004  0.00553  0.01571  25003.7
         Total DFT energy =    -1017.338678880093
         Total DFT energy =    -1017.338679753693
@   10   -1017.33867975 -1.1D-05  0.00029  0.00006  0.02555  0.07301  27580.1
         Total DFT energy =    -1017.338684488523
         Total DFT energy =  -1017.338684488523
@   11   -1017.33868449 -4.7D-06  0.00025  0.00005  0.00625  0.01762  29645.3
         Total DFT energy =    -1017.338704357516
         Total DFT energy =    -1017.338704317151
@   12   -1017.33870432 -2.0D-05  0.00037  0.00006  0.05519  0.15542  32198.8
         Total DFT energy =    -1017.338709056216
         Total DFT energy =  -1017.338709056216
@   13   -1017.33870906 -4.7D-06  0.00022  0.00004  0.00302  0.00804  34277.0
         Total DFT energy =    -1017.338722987352
         Total DFT energy =    -1017.338723795447
@   14   -1017.33872380 -1.5D-05  0.00036  0.00006  0.02230  0.07173  36876.9
         Total DFT energy =    -1017.338727484147
         Total DFT energy =  -1017.338727484147
@   15   -1017.33872748 -3.7D-06  0.00020  0.00004  0.00630  0.01870  38883.6
         Total DFT energy =    -1017.338733918751
         Total DFT energy =    -1017.338734153470
@   16   -1017.33873415 -6.7D-06  0.00020  0.00004  0.02130  0.06187  41497.4
         Total DFT energy =    -1017.338736059703
         Total DFT energy =  -1017.338736059703
@   17   -1017.33873606 -1.9D-06  0.00015  0.00003  0.00275  0.00989  43526.0
         Total DFT energy =    -1017.338744210617
         Total DFT energy =    -1017.338744424933
@   18   -1017.33874442 -8.4D-06  0.00019  0.00003  0.02617  0.09106  46049.3
         Total DFT energy =    -1017.338746104425
         Total DFT energy =  -1017.338746104425
@   19   -1017.33874610 -1.7D-06  0.00014  0.00003  0.00607  0.01889  48107.3
         Total DFT energy =    -1017.338751039656
         Total DFT energy =  -1017.338751039656
@   20   -1017.33875104 -4.9D-06  0.00011  0.00002  0.02960  0.09123  50130.1
         Total DFT energy =    -1017.338752103879
         Total DFT energy =  -1017.338752103879
@   21   -1017.33875210 -1.1D-06  0.00010  0.00002  0.00803  0.02534  52152.0
         Total DFT energy =    -1017.338754574599
         Total DFT energy =  -1017.338754574599
@   22   -1017.33875457 -2.5D-06  0.00007  0.00002  0.02367  0.07472  54167.8
         Total DFT energy =    -1017.338755921620
         Total DFT energy =  -1017.338755921620
@   23   -1017.33875592 -1.3D-06  0.00006  0.00001  0.01988  0.06295  56175.2
         Total DFT energy =    -1017.338756750699
         Total DFT energy =  -1017.338756750699
@   24   -1017.33875675 -8.3D-07  0.00007  0.00001  0.02304  0.06881  58220.3
         Total DFT energy =    -1017.338757526548
         Total DFT energy =  -1017.338757526548
@   25   -1017.33875753 -7.8D-07  0.00005  0.00001  0.01582  0.04725  60274.7
         Total DFT energy =    -1017.338759850820
         Total DFT energy =  -1017.338759850820
@   26   -1017.33875985 -2.3D-06  0.00009  0.00002  0.02768  0.08119  62328.3
         Total DFT energy =    -1017.338761462370
         Total DFT energy =  -1017.338761462370
@   27   -1017.33876146 -1.6D-06  0.00013  0.00002  0.00283  0.01000  64371.1
         Total DFT energy =    -1017.338763604429
         Total DFT energy =  -1017.338763604429
@   28   -1017.33876360 -2.1D-06  0.00013  0.00002  0.01027  0.03004  66411.9
         Total DFT energy =    -1017.338764624782
         Total DFT energy =  -1017.338764624782
@   29   -1017.33876462 -1.0D-06  0.00009  0.00001  0.00706  0.01873  68434.2
         Total DFT energy =    -1017.338764940188
         Total DFT energy =  -1017.338764940188
@   30   -1017.33876494 -3.2D-07  0.00005  0.00001  0.01016  0.03076  70439.1
         Total DFT energy =    -1017.338765107775
         Total DFT energy =  -1017.338765107775
@   31   -1017.33876511 -1.7D-07  0.00002  0.00000  0.00280  0.00656  72489.7
         Total DFT energy =    -1017.338765140754
         Total DFT energy =  -1017.338765140754
@   32   -1017.33876514 -3.3D-08  0.00002  0.00000  0.00234  0.00731  74562.3
         Total DFT energy =    -1017.338765185761
         Total DFT energy =  -1017.338765185761
@   33   -1017.33876519 -4.5D-08  0.00003  0.00000  0.00056  0.00159  76601.7
         Total DFT energy =    -1017.338765296347
         Total DFT energy =  -1017.338765296347
@   34   -1017.33876530 -1.1D-07  0.00004  0.00001  0.00218  0.00604  78590.6
         Total DFT energy =    -1017.338765365148
         Total DFT energy =  -1017.338765365148
@   35   -1017.33876537 -6.9D-08  0.00003  0.00001  0.00057  0.00238  80610.7
         Total DFT energy =    -1017.338765433522
         Total DFT energy =  -1017.338765433522
@   36   -1017.33876543 -6.8D-08  0.00001  0.00000  0.00080  0.00368  82677.6
         Total DFT energy =    -1017.338765444493
         Total DFT energy =  -1017.338765444493
@   37   -1017.33876544 -1.1D-08  0.00001  0.00000  0.00028  0.00100  84717.7
         Total DFT energy =    -1017.338765449263
         Total DFT energy =  -1017.338765449263
@   38   -1017.33876545 -4.8D-09  0.00000  0.00000  0.00025  0.00079  86733.6
         Total DFT energy =    -1017.338765443860
         Total DFT energy =  -1017.338765443860
@   39   -1017.33876544  5.4D-09  0.00000  0.00000  0.00047  0.00143  88728.9
         Total DFT energy =    -1017.338765442226
         Total DFT energy =  -1017.338765442226
@   40   -1017.33876544  1.6D-09  0.00000  0.00000  0.00012  0.00034  90782.1
         Total DFT energy =    -1017.338765442891
         Total DFT energy =  -1017.338765442891
@   41   -1017.33876544 -6.7D-10  0.00000  0.00000  0.00002  0.00005  92842.4
@   41   -1017.33876544 -6.7D-10  0.00000  0.00000  0.00002  0.00005  92842.4

 Output coordinates in angstroms (scale by  1.889725989 to convert to a.u.)

  No.       Tag          Charge          X              Y              Z
 ---- ---------------- ---------- -------------- -------------- --------------
    1 O                    8.0000     0.58273002    -0.75479134    -0.04583468
    2 P                   15.0000    -0.14559393     0.39004213    -1.05406615
    3 O                    8.0000     0.98678552     1.63349479    -1.09524996
    4 O                    8.0000    -1.08235335     1.16506548     0.11529048
    5 C                    6.0000     0.87893638     2.53894449     0.05793087
    6 C                    6.0000    -0.65931767     2.54545542     0.36812392
    7 C                    6.0000     1.72875614     1.97249438     1.20134351
    8 C                    6.0000     1.43222774     3.88825603    -0.39147792
    9 C                    6.0000    -1.46117146     3.44948672    -0.57546107
   10 C                    6.0000    -1.00306271     2.85838649     1.82221123
   11 H                    1.0000     1.80110848     2.69127223     2.03120602
   12 H                    1.0000     1.31959171     1.02798503     1.58166279
   13 H                    1.0000     2.74458886     1.77960876     0.82533870
   14 H                    1.0000     0.95977094     4.23212221    -1.32064094
   15 H                    1.0000     1.26990486     4.64652728     0.39038463
   16 H                    1.0000     2.51582424     3.80672162    -0.56473133
   17 H                    1.0000    -1.29694557     4.51339747    -0.34940638
   18 H                    1.0000    -1.19479560     3.27185839    -1.62806612
   19 H                    1.0000    -2.53216452     3.23208192    -0.45002537
   20 H                    1.0000    -0.63242067     3.85851853     2.09608186
   21 H                    1.0000    -2.09530910     2.85200877     1.95478171
   22 H                    1.0000    -0.56881075     2.12070414     2.50926972
   23 C                    6.0000     0.70709131    -2.10420605    -0.53630731
   24 C                    6.0000    -0.21586087    -3.02234976     0.26325801
   25 N                    7.0000    -0.10971920    -4.41793691    -0.16291219
   26 C                    6.0000     1.08822395    -5.06724641     0.36230336
   27 H                    1.0000    -2.19364883    -4.72028500    -0.25239170
   28 H                    1.0000     1.16406569    -6.08853740    -0.04205516
   29 C                    6.0000    -1.30103363    -5.17874032     0.19988630
   30 H                    1.0000     0.44935846    -2.16094597    -1.60858782
   31 H                    1.0000     1.76433772    -2.38912136    -0.42661169
   32 H                    1.0000    -1.25151123    -2.68629421     0.09568167
   33 H                    1.0000    -0.00810569    -2.89459300     1.35000628
   34 H                    1.0000    -1.46327884    -5.23655110     1.30065156
   35 H                    1.0000     1.08451024    -5.13760827     1.47438997
   36 H                    1.0000     1.99254783    -4.51901518     0.06178304
   37 H                    1.0000    -1.21232236    -6.20892822    -0.17931976

         Total DFT energy =    -1017.338765473299
      Atom:    1  P
           isotropic =     202.3145
 Total times  cpu:    98567.4s     wall:    99717.5s
