============================== echo of input deck ==============================
echo

start molecule

memory total 40 gb

print low

title "der2"
charge 0

# spin-spin coupling only for odft
dft
  odft
  mult 1
end

geometry units angstroms print xyz autosym
#  load format xyz VX.converged_geometry_blyp_tz2p-solvent-chcl3.xyz
#  load format xyz VX.geom.xyz
 # load format xyz der1.pbe0_tz2p_good_cosmo-chcl3_optimized_geom.xyz
  load format xyz der2.geopt_freq_nmr_pbe0_tz2p_good_cosmo-chcl3_converged_geometry.xyz
end

basis
  * library cc-pvdz
end

dft
  direct
  grid fine
  xc b3lyp
  mult 1
# Reduce output during geometry optimization
  noprint "final vectors analysis"
end

driver
  tight
  maxiter 9999
  xyz der2_geom_ccpvdz
end

property
  giao
  shielding 1  2
  spinspin  3  2 23 2 30 2 31
end

cosmo
  solvent chcl3
end

task dft optimize
task dft property
================================================================================

         Total DFT energy =    -1016.170581431177
@ Step       Energy      Delta E   Gmax     Grms     Xrms     Xmax   Walltime
@ ---- ---------------- -------- -------- -------- -------- -------- --------
@    0   -1016.17058143  0.0D+00  0.03464  0.00501  0.00000  0.00000    785.1
         Total DFT energy =    -1016.177400233953
         Total DFT energy =    -1016.177513067200
@    1   -1016.17751307 -6.9D-03  0.00667  0.00087  0.06699  0.18111   1913.6
         Total DFT energy =    -1016.177996129828
         Total DFT energy =    -1016.178015425511
@    2   -1016.17801543 -5.0D-04  0.00191  0.00026  0.02350  0.06769   3037.0
         Total DFT energy =    -1016.178068177120
         Total DFT energy =    -1016.178069622513
@    3   -1016.17806962 -5.4D-05  0.00059  0.00011  0.01678  0.05441   4159.1
         Total DFT energy =    -1016.178085824191
         Total DFT energy =    -1016.178094268600
@    4   -1016.17809427 -2.5D-05  0.00077  0.00011  0.01701  0.04117   5276.2
         Total DFT energy =    -1016.178112965105
         Total DFT energy =    -1016.178131400679
@    5   -1016.17813140 -3.7D-05  0.00103  0.00017  0.02485  0.07355   6397.6
         Total DFT energy =    -1016.178157460105
         Total DFT energy =    -1016.178181522152
@    6   -1016.17818152 -5.0D-05  0.00072  0.00014  0.03865  0.10467   7515.8
         Total DFT energy =    -1016.178198608795
         Total DFT energy =    -1016.178205934476
@    7   -1016.17820593 -2.4D-05  0.00041  0.00008  0.01709  0.04149   8636.9
         Total DFT energy =    -1016.178214821427
         Total DFT energy =    -1016.178219858255
@    8   -1016.17821986 -1.4D-05  0.00049  0.00006  0.02053  0.05095   9754.0
         Total DFT energy =    -1016.178225290977
         Total DFT energy =    -1016.178229839367
@    9   -1016.17822984 -1.0D-05  0.00031  0.00006  0.01740  0.04922  10873.7
         Total DFT energy =    -1016.178235429514
         Total DFT energy =    -1016.178240182419
@   10   -1016.17824018 -1.0D-05  0.00054  0.00007  0.02217  0.06163  11988.1
         Total DFT energy =    -1016.178246908575
         Total DFT energy =    -1016.178256191169
@   11   -1016.17825619 -1.6D-05  0.00036  0.00007  0.03935  0.11093  13097.4
         Total DFT energy =    -1016.178263507437
         Total DFT energy =    -1016.178268084559
@   12   -1016.17826808 -1.2D-05  0.00034  0.00006  0.02731  0.08084  14186.0
         Total DFT energy =    -1016.178275322287
         Total DFT energy =    -1016.178280157945
@   13   -1016.17828016 -1.2D-05  0.00029  0.00006  0.00741  0.01847  15292.7
         Total DFT energy =    -1016.178285771931
         Total DFT energy =    -1016.178286877680
@   14   -1016.17828688 -6.7D-06  0.00014  0.00003  0.02894  0.08670  16392.4
         Total DFT energy =    -1016.178290018695
         Total DFT energy =  -1016.178290018695
@   15   -1016.17829002 -3.1D-06  0.00016  0.00003  0.00437  0.01309  16998.9
         Total DFT energy =    -1016.178294802321
         Total DFT energy =  -1016.178294802321
@   16   -1016.17829480 -4.8D-06  0.00017  0.00003  0.00653  0.02506  17582.0
         Total DFT energy =    -1016.178298831819
         Total DFT energy =  -1016.178298831819
@   17   -1016.17829883 -4.0D-06  0.00014  0.00003  0.01040  0.03665  18199.8
         Total DFT energy =    -1016.178303060447
         Total DFT energy =  -1016.178303060447
@   18   -1016.17830306 -4.2D-06  0.00014  0.00003  0.01660  0.05443  18783.3
         Total DFT energy =    -1016.178306612386
         Total DFT energy =  -1016.178306612386
@   19   -1016.17830661 -3.6D-06  0.00012  0.00002  0.01934  0.06015  19386.7
         Total DFT energy =    -1016.178309536081
         Total DFT energy =  -1016.178309536081
@   20   -1016.17830954 -2.9D-06  0.00012  0.00002  0.01720  0.05271  19981.7
         Total DFT energy =    -1016.178311930355
         Total DFT energy =  -1016.178311930355
@   21   -1016.17831193 -2.4D-06  0.00011  0.00002  0.01449  0.04433  20553.7
         Total DFT energy =    -1016.178314360481
         Total DFT energy =  -1016.178314360481
@   22   -1016.17831436 -2.4D-06  0.00011  0.00002  0.01797  0.05569  21162.3
         Total DFT energy =    -1016.178316248351
         Total DFT energy =  -1016.178316248351
@   23   -1016.17831625 -1.9D-06  0.00014  0.00003  0.02879  0.08908  21739.1
         Total DFT energy =    -1016.178318496624
         Total DFT energy =  -1016.178318496624
@   24   -1016.17831850 -2.2D-06  0.00015  0.00002  0.02308  0.07210  22351.3
         Total DFT energy =    -1016.178320964622
         Total DFT energy =  -1016.178320964622
@   25   -1016.17832096 -2.5D-06  0.00007  0.00002  0.03487  0.10576  22949.9
         Total DFT energy =    -1016.178322315835
         Total DFT energy =  -1016.178322315835
@   26   -1016.17832232 -1.4D-06  0.00007  0.00001  0.00863  0.02465  23550.5
         Total DFT energy =    -1016.178323785209
         Total DFT energy =  -1016.178323785209
@   27   -1016.17832379 -1.5D-06  0.00010  0.00002  0.00354  0.01365  24164.9
         Total DFT energy =    -1016.178325577811
         Total DFT energy =  -1016.178325577811
@   28   -1016.17832558 -1.8D-06  0.00015  0.00002  0.00578  0.02004  24746.6
         Total DFT energy =    -1016.178327095231
         Total DFT energy =  -1016.178327095231
@   29   -1016.17832710 -1.5D-06  0.00012  0.00002  0.01144  0.03114  25369.0
         Total DFT energy =    -1016.178328047214
         Total DFT energy =  -1016.178328047214
@   30   -1016.17832805 -9.5D-07  0.00008  0.00001  0.00422  0.01279  25942.4
         Total DFT energy =    -1016.178328337671
         Total DFT energy =  -1016.178328337671
@   31   -1016.17832834 -2.9D-07  0.00005  0.00001  0.00422  0.01256  26569.4
         Total DFT energy =    -1016.178328475196
         Total DFT energy =  -1016.178328475196
@   32   -1016.17832848 -1.4D-07  0.00003  0.00000  0.00349  0.00904  27138.4
         Total DFT energy =    -1016.178328518123
         Total DFT energy =  -1016.178328518123
@   33   -1016.17832852 -4.3D-08  0.00002  0.00000  0.00166  0.00528  27766.4
         Total DFT energy =    -1016.178328575296
         Total DFT energy =  -1016.178328575296
@   34   -1016.17832858 -5.7D-08  0.00002  0.00000  0.00078  0.00241  28350.0
         Total DFT energy =    -1016.178328649357
         Total DFT energy =  -1016.178328649357
@   35   -1016.17832865 -7.4D-08  0.00004  0.00001  0.00068  0.00355  28959.9
         Total DFT energy =    -1016.178328709361
         Total DFT energy =  -1016.178328709361
@   36   -1016.17832871 -6.0D-08  0.00004  0.00001  0.00061  0.00323  29557.2
         Total DFT energy =    -1016.178328760344
         Total DFT energy =  -1016.178328760344
@   37   -1016.17832876 -5.1D-08  0.00002  0.00000  0.00054  0.00250  30150.6
         Total DFT energy =    -1016.178328790686
         Total DFT energy =  -1016.178328790686
@   38   -1016.17832879 -3.0D-08  0.00001  0.00000  0.00045  0.00158  30759.0
         Total DFT energy =    -1016.178328793982
         Total DFT energy =  -1016.178328793982
@   39   -1016.17832879 -3.3D-09  0.00000  0.00000  0.00011  0.00044  31339.0
         Total DFT energy =    -1016.178328795624
         Total DFT energy =  -1016.178328795624
@   40   -1016.17832880 -1.6D-09  0.00000  0.00000  0.00002  0.00010  31961.6
         Total DFT energy =    -1016.178328795961
         Total DFT energy =  -1016.178328795961
@   41   -1016.17832880 -3.4D-10  0.00000  0.00000  0.00001  0.00004  32533.0
@   41   -1016.17832880 -3.4D-10  0.00000  0.00000  0.00001  0.00004  32533.0

 Output coordinates in angstroms (scale by  1.889725989 to convert to a.u.)

  No.       Tag          Charge          X              Y              Z
 ---- ---------------- ---------- -------------- -------------- --------------
    1 O                    8.0000     0.58736945    -0.75401191    -0.05197056
    2 P                   15.0000    -0.14278468     0.39051512    -1.05723312
    3 O                    8.0000     0.98759486     1.63474464    -1.09659769
    4 O                    8.0000    -1.08047268     1.16309285     0.11199225
    5 C                    6.0000     0.87927579     2.53913369     0.05730219
    6 C                    6.0000    -0.65920996     2.54335683     0.36794720
    7 C                    6.0000     1.73015920     1.97260570     1.20008084
    8 C                    6.0000     1.43082749     3.88968603    -0.39092551
    9 C                    6.0000    -1.46227434     3.44852568    -0.57376202
   10 C                    6.0000    -1.00294978     2.85319888     1.82282585
   11 H                    1.0000     1.80149546     2.69060741     2.03079620
   12 H                    1.0000     1.32247406     1.02697539     1.57945149
   13 H                    1.0000     2.74634042     1.78168323     0.82377346
   14 H                    1.0000     0.95758885     4.23398143    -1.31962644
   15 H                    1.0000     1.26782793     4.64697918     0.39184584
   16 H                    1.0000     2.51454054     3.80964716    -0.56466945
   17 H                    1.0000    -1.29875317     4.51221365    -0.34582761
   18 H                    1.0000    -1.19623125     3.27298198    -1.62688975
   19 H                    1.0000    -2.53312667     3.23006360    -0.44823812
   20 H                    1.0000    -0.63333406     3.85329908     2.09848841
   21 H                    1.0000    -2.09523676     2.84534025     1.95566964
   22 H                    1.0000    -0.56768670     2.11466682     2.50846834
   23 C                    6.0000     0.70953470    -2.10465480    -0.53916207
   24 C                    6.0000    -0.21437438    -3.02010769     0.26273807
   25 N                    7.0000    -0.11055805    -4.41654830    -0.16082624
   26 C                    6.0000     1.08668201    -5.06728546     0.36397559
   27 H                    1.0000    -2.19505200    -4.71573951    -0.25131652
   28 H                    1.0000     1.16085078    -6.08911803    -0.03957567
   29 C                    6.0000    -1.30320544    -5.17529341     0.20158393
   30 H                    1.0000     0.45137002    -2.16330201    -1.61125468
   31 H                    1.0000     1.76647955    -2.39078922    -0.42913917
   32 H                    1.0000    -1.24968055    -2.68267342     0.09525507
   33 H                    1.0000    -0.00578587    -2.89056225     1.34920686
   34 H                    1.0000    -1.46619199    -5.23242177     1.30236998
   35 H                    1.0000     1.08365725    -5.13685485     1.47620891
   36 H                    1.0000     1.99183362    -4.52073361     0.06253620
   37 H                    1.0000    -1.21605954    -6.20592061    -0.17706163

         Total DFT energy =    -1016.178328826700
      Atom:    1  P
           isotropic =     204.1691
 Total times  cpu:    39586.8s     wall:    39627.8s
