============================== echo of input deck ==============================
echo

start molecule

memory total 40 gb
print low

title "TMS"
charge 0

geometry units angstroms print xyz autosym
  #load format xyz TMS.start_geom.xyz
  load format xyz TMS.converged_geometry_pbe0_tz2p_good_cosmo-h2o.xyz
end

basis
  * library cc-pvtz
end

dft
  grid huge
  xc b3lyp
  mult 1
  noprint "final vectors analysis"
end

driver
  clear
  tight
  linopt 0
  maxiter 999
  xyz TMS_geom
end

property
  giao
  shielding
end

cosmo
  solvent h2o
end

task dft energy
#task dft freq
task dft property

================================================================================

 Output coordinates in angstroms (scale by  1.889725989 to convert to a.u.)

  No.       Tag          Charge          X              Y              Z
 ---- ---------------- ---------- -------------- -------------- --------------
    1 Si                  14.0000     0.00010450    -0.00007485     0.00010286
    2 C                    6.0000    -1.54903986    -0.78109581     0.71369221
    3 C                    6.0000     0.52034128     1.44932525     1.07128216
    4 C                    6.0000    -0.34966480     0.60376244    -1.74102697
    5 C                    6.0000     1.37821388    -1.27191318    -0.04404365
    6 H                    1.0000    -1.87228609    -1.62982245     0.10515532
    7 H                    1.0000    -1.37000149    -1.14131582     1.73019132
    8 H                    1.0000    -2.36812712    -0.05797748     0.74942980
    9 H                    1.0000    -0.26820377     2.20536695     1.11230089
   10 H                    1.0000     0.72995754     1.12217169     2.09312080
   11 H                    1.0000     1.42286795     1.92182556     0.67460953
   12 H                    1.0000     0.53995274     1.06390280    -2.17916138
   13 H                    1.0000    -0.65556216    -0.22433062    -2.38582889
   14 H                    1.0000    -1.15099095     1.34742898    -1.74111205
   15 H                    1.0000     2.29336947    -0.83952734    -0.45721229
   16 H                    1.0000     1.60059759    -1.63933835     0.96129635
   17 H                    1.0000     1.09786032    -2.12780830    -0.66365203

         Total DFT energy =     -449.297348379684
         Total DFT energy =     -449.297348408334
      Atom:    1  Si
           isotropic =     347.5059
      Atom:    2  C
           isotropic =     182.8417
      Atom:    3  C
           isotropic =     182.7478
      Atom:    4  C
           isotropic =     182.8311
      Atom:    5  C
           isotropic =     182.8297
      Atom:    6  H
           isotropic =      31.6982
      Atom:    7  H
           isotropic =      31.7115
      Atom:    8  H
           isotropic =      31.6840
      Atom:    9  H
           isotropic =      31.6742
      Atom:   10  H
           isotropic =      31.6894
      Atom:   11  H
           isotropic =      31.7256
      Atom:   12  H
           isotropic =      31.7114
      Atom:   13  H
           isotropic =      31.6963
      Atom:   14  H
           isotropic =      31.6838
      Atom:   15  H
           isotropic =      31.7034
      Atom:   16  H
           isotropic =      31.6914
      Atom:   17  H
           isotropic =      31.7044
 Total times  cpu:     3301.7s     wall:     3312.8s
