============================== echo of input deck ==============================
echo

start molecule

memory total 40 gb
print low

title "Mustard gas, HD"
charge 0

geometry units angstroms print xyz autosym
  load format xyz CHCl3.start_geom.xyz
end

basis
  * library 6-311++G(2d,2p)
end

dft
  grid huge
  xc b3lyp
  mult 1
  noprint "final vectors analysis"
end

driver
  clear
  tight
  linopt 0
  maxiter 999
  xyz CHCl3_geom
end

property
  giao
  shielding
end

cosmo
  solvent chcl3
end

task dft optimize
task dft freq
task dft property

================================================================================

         Total DFT energy =    -1419.393554177901
@ Step       Energy      Delta E   Gmax     Grms     Xrms     Xmax   Walltime
@ ---- ---------------- -------- -------- -------- -------- -------- --------
@    0   -1419.39355418  0.0D+00  0.01424  0.00793  0.00000  0.00000     25.3
         Total DFT energy =    -1419.394125200269
@    1   -1419.39412520 -5.7D-04  0.00505  0.00278  0.01934  0.03755     46.8
         Total DFT energy =    -1419.393976764496
@    2   -1419.39397676  1.5D-04  0.00020  0.00013  0.00900  0.01529     68.5
         Total DFT energy =    -1419.393958514255
@    3   -1419.39395851  1.8D-05  0.00012  0.00007  0.00048  0.00103     90.0
         Total DFT energy =    -1419.393954171000
@    4   -1419.39395417  4.3D-06  0.00009  0.00005  0.00011  0.00023    111.4
         Total DFT energy =    -1419.393945157494
@    5   -1419.39394516  9.0D-06  0.00003  0.00002  0.00022  0.00047    132.8
         Total DFT energy =    -1419.393943201772
@    6   -1419.39394320  2.0D-06  0.00001  0.00001  0.00005  0.00010    154.5
         Total DFT energy =    -1419.393941434675
@    7   -1419.39394143  1.8D-06  0.00000  0.00000  0.00004  0.00009    176.0
         Total DFT energy =    -1419.393941257434
@    8   -1419.39394126  1.8D-07  0.00000  0.00000  0.00000  0.00001    197.4
@    8   -1419.39394126  1.8D-07  0.00000  0.00000  0.00000  0.00001    197.4

 Output coordinates in angstroms (scale by  1.889725989 to convert to a.u.)

  No.       Tag          Charge          X              Y              Z
 ---- ---------------- ---------- -------------- -------------- --------------
    1 C                    6.0000     0.00000000     0.00000000     0.48551321
    2 Cl                  17.0000     1.57957590    -0.62200974    -0.10150516
    3 Cl                  17.0000    -1.32846418    -1.05694799    -0.10150516
    4 H                    1.0000     0.00000000     0.00000000     1.56525474
    5 Cl                  17.0000    -0.25111172     1.67895772    -0.10150516

         Total DFT energy =    -1419.393941258659
         Total DFT energy =    -1419.393930689483
         Total DFT energy =    -1419.393935335451
         Total DFT energy =    -1419.393930807961
         Total DFT energy =    -1419.393935180319
         Total DFT energy =    -1419.393800102945
         Total DFT energy =    -1419.394033720489
         Total DFT energy =    -1419.393941137814
         Total DFT energy =    -1419.393939895798
         Total DFT energy =    -1419.393940291390
         Total DFT energy =    -1419.393940728964
         Total DFT energy =    -1419.393929614240
         Total DFT energy =    -1419.393920578532
         Total DFT energy =    -1419.393944520693
         Total DFT energy =    -1419.393937918949
         Total DFT energy =    -1419.393915503267
         Total DFT energy =    -1419.393954732269
         Total DFT energy =    -1419.393978982464
         Total DFT energy =    -1419.393903066674
 Zero-Point correction to Energy  =   12.137 kcal/mol  (  0.019341 au)
 Thermal correction to Energy     =   14.990 kcal/mol  (  0.023888 au)
 Thermal correction to Enthalpy   =   15.582 kcal/mol  (  0.024831 au)
 Total Entropy                    =   70.931 cal/mol-K
   - Translational                =   40.191 cal/mol-K (mol. weight = 117.9144)
   - Rotational                   =   25.131 cal/mol-K (symmetry #  =        3)
   - Vibrational                  =    5.608 cal/mol-K
   - Translational                  =    2.979 cal/mol-K
   - Rotational                     =    2.979 cal/mol-K
   - Vibrational                    =    8.126 cal/mol-K
 P.Frequency       -0.00       -0.00        0.00        0.00        0.00        0.00
 P.Frequency      256.83      256.83      358.22      651.33      678.84      678.84
 P.Frequency     1205.13     1205.13     3202.76

 Normal Eigenvalue ||           Projected Infra Red Intensities
  Mode   [cm**-1]  || [atomic units] [(debye/angs)**2] [(KM/mol)] [arbitrary]
 ------ ---------- || -------------- ----------------- ---------- -----------
    1       -0.000 ||    0.000460           0.011         0.448       0.105
    2       -0.000 ||    0.000432           0.010         0.421       0.099
    3        0.000 ||    0.000001           0.000         0.001       0.000
    4        0.000 ||    0.000452           0.010         0.440       0.103
    5        0.000 ||    0.000001           0.000         0.001       0.000
    6        0.000 ||    0.000000           0.000         0.000       0.000
    7      256.834 ||    0.000001           0.000         0.000       0.000
    8      256.834 ||    0.000001           0.000         0.000       0.000
    9      358.219 ||    0.000214           0.005         0.208       0.049
   10      651.330 ||    0.007902           0.182         7.703       1.804
   11      678.836 ||    0.285230           6.580       278.057      65.116
   12      678.836 ||    0.285230           6.580       278.057      65.116
   13     1205.128 ||    0.028104           0.648        27.397       6.416
   14     1205.128 ||    0.028104           0.648        27.397       6.416
   15     3202.761 ||    0.020917           0.483        20.391       4.775
 ----------------------------------------------------------------------------

         Total DFT energy =    -1419.393941728012
      Atom:    1  C
           isotropic =      64.8581
      Atom:    2  Cl
           isotropic =     478.4241
      Atom:    3  Cl
           isotropic =     478.3637
      Atom:    4  H
           isotropic =      23.6817
      Atom:    5  Cl
           isotropic =     478.4962
 Total times  cpu:     1388.0s     wall:     1392.6s
