============================== echo of input deck ==============================
echo

start molecule

# https://nwchemgit.github.io/Memory.html
memory total 40 gb

print low

title "H3PO4"
charge 0

geometry units angstroms print xyz autosym
  load format xyz h3po4_startgeom.xyz
end

basis
  * library cc-pvdz
end

dft
  grid fine
 # grid huge
  xc b3lyp
  mult 1
# Reduce output during geometry optimization
  noprint "final vectors analysis"
  print low
end

driver
#  clear
  tight
#  linopt 0
  maxiter 9999
  xyz h3po4_geom
  print low
end

property
  giao
  shielding
end

cosmo
  solvent chcl3
end

task dft optimize
#task dft freq
task dft property

================================================================================

         Total DFT energy =     -644.175977612069
@ Step       Energy      Delta E   Gmax     Grms     Xrms     Xmax   Walltime
@ ---- ---------------- -------- -------- -------- -------- -------- --------
@    0    -644.17597761  0.0D+00  0.03442  0.01251  0.00000  0.00000      8.4
         Total DFT energy =     -644.180226187483
         Total DFT energy =   -644.180226187483
@    1    -644.18022619 -4.2D-03  0.00530  0.00231  0.02886  0.05405     15.4
         Total DFT energy =     -644.180791570735
         Total DFT energy =     -644.180741729273
@    2    -644.18074173 -5.2D-04  0.00516  0.00138  0.01259  0.02204     27.3
         Total DFT energy =     -644.180964682062
         Total DFT energy =     -644.180954050408
@    3    -644.18095405 -2.1D-04  0.00334  0.00113  0.01297  0.02527     39.2
         Total DFT energy =     -644.181137443531
         Total DFT energy =     -644.181090448825
@    4    -644.18109045 -1.4D-04  0.00293  0.00124  0.01211  0.02633     50.9
         Total DFT energy =     -644.181359959191
         Total DFT energy =     -644.181286432385
@    5    -644.18128643 -2.0D-04  0.00315  0.00129  0.01331  0.03066     62.7
         Total DFT energy =     -644.181691587785
         Total DFT energy =   -644.181691587785
@    6    -644.18169159 -4.1D-04  0.00257  0.00108  0.01830  0.04097     69.8
         Total DFT energy =     -644.182122562408
         Total DFT energy =     -644.182182376979
@    7    -644.18218238 -4.9D-04  0.00173  0.00050  0.02224  0.04426     81.1
         Total DFT energy =     -644.182500718433
         Total DFT energy =     -644.182630755698
@    8    -644.18263076 -4.5D-04  0.00093  0.00029  0.02903  0.05539     92.8
         Total DFT energy =     -644.182890087577
         Total DFT energy =     -644.183092860280
@    9    -644.18309286 -4.6D-04  0.00142  0.00033  0.03845  0.07604    104.5
         Total DFT energy =     -644.183099113760
         Total DFT energy =   -644.183099113760
@   10    -644.18309911 -6.3D-06  0.00048  0.00011  0.00377  0.00683    111.5
         Total DFT energy =     -644.183110482081
         Total DFT energy =     -644.183120233818
@   11    -644.18312023 -2.1D-05  0.00045  0.00011  0.00201  0.00392    123.4
         Total DFT energy =     -644.183113364735
         Total DFT energy =     -644.183119621942
@   12    -644.18311962  6.1D-07  0.00040  0.00010  0.00010  0.00018    135.1
         Total DFT energy =     -644.183113560308
         Total DFT energy =     -644.183119114000
@   13    -644.18311911  5.1D-07  0.00037  0.00009  0.00008  0.00015    146.7
         Total DFT energy =     -644.183113667789
         Total DFT energy =     -644.183118685691
@   14    -644.18311869  4.3D-07  0.00034  0.00008  0.00007  0.00013    158.4
         Total DFT energy =     -644.183113668552
         Total DFT energy =     -644.183118319020
@   15    -644.18311832  3.7D-07  0.00031  0.00008  0.00006  0.00011    170.2
         Total DFT energy =     -644.183113669056
         Total DFT energy =   -644.183113669056
@   16    -644.18311367  4.6D-06  0.00000  0.00000  0.00067  0.00123    177.2
         Total DFT energy =     -644.183113670619
         Total DFT energy =   -644.183113670619
@   17    -644.18311367 -1.6D-09  0.00000  0.00000  0.00000  0.00000    184.4
@   17    -644.18311367 -1.6D-09  0.00000  0.00000  0.00000  0.00000    184.4

 Output coordinates in angstroms (scale by  1.889725989 to convert to a.u.)

  No.       Tag          Charge          X              Y              Z
 ---- ---------------- ---------- -------------- -------------- --------------
    1 P                   15.0000     0.00000000     0.00000000     0.15185345
    2 O                    8.0000     0.17542033     1.43887478    -0.59534236
    3 O                    8.0000     1.15839195    -0.87135585    -0.59534236
    4 O                    8.0000    -1.33381228    -0.56751893    -0.59534236
    5 O                    8.0000    -0.00000000     0.00000000     1.64933195
    6 H                    1.0000    -0.20324147     2.16035797    -0.05795687
    7 H                    1.0000     1.97254562    -0.90416671    -0.05795687
    8 H                    1.0000    -1.76930415    -1.25619126    -0.05795687

         Total DFT energy =     -644.183116748107
      Atom:    1  P
           isotropic =     371.7123
      Atom:    2  O
           isotropic =     234.5366
      Atom:    3  O
           isotropic =     234.9918
      Atom:    4  O
           isotropic =     234.7634
      Atom:    5  O
           isotropic =     188.3579
      Atom:    6  H
           isotropic =      27.9524
      Atom:    7  H
           isotropic =      27.9482
      Atom:    8  H
           isotropic =      27.9045
 Total times  cpu:      235.4s     wall:      238.6s
