 Output coordinates in a.u. (scale by  1.000000000 to convert to a.u.)

  No.       Tag          Charge          X              Y              Z
 ---- ---------------- ---------- -------------- -------------- --------------
    1 Pb                  82.0000     0.00000000     0.00000000     0.00000000

         Total SCF energy =    -59.698317130518

 Vector    1  Occ=2.000000D+00  E=-1.089417D+00

 Vector    2  Occ=2.000000D+00  E=-1.089417D+00

 Vector    3  Occ=2.000000D+00  E=-1.072747D+00

 Vector    4  Occ=2.000000D+00  E=-1.072747D+00

 Vector    5  Occ=2.000000D+00  E=-1.067422D+00

 Vector    6  Occ=2.000000D+00  E=-5.711811D-01

 Vector    7  Occ=2.000000D+00  E=-2.026332D-01

 Vector    8  Occ=0.000000D+00  E=-2.070260D-03

 Vector    9  Occ=0.000000D+00  E=-2.070260D-03

 Vector   10  Occ=0.000000D+00  E= 9.240644D-02

 Vector   11  Occ=0.000000D+00  E= 1.755003D-01

 Vector   12  Occ=0.000000D+00  E= 1.755003D-01

 Vector   13  Occ=0.000000D+00  E= 1.875211D-01

 Vector   14  Occ=0.000000D+00  E= 1.875211D-01

 Vector   15  Occ=0.000000D+00  E= 1.926342D-01

 Vector   16  Occ=0.000000D+00  E= 3.276340D-01

 Vector   17  Occ=0.000000D+00  E= 3.276340D-01

 Vector   18  Occ=0.000000D+00  E= 3.409992D-01

 Vector   19  Occ=0.000000D+00  E= 4.560347D-01

 Vector   20  Occ=0.000000D+00  E= 7.577987D-01

       Multipole analysis of the density wrt the origin
       ------------------------------------------------

     L   x y z        total         open         nuclear
     -   - - -        -----         ----         -------
     0   0 0 0     -0.000000      0.000000     14.000000

     1   1 0 0     -0.000000      0.000000      0.000000
     1   0 1 0      0.000000      0.000000      0.000000
     1   0 0 1      0.000000      0.000000      0.000000

     2   2 0 0    -16.219510      0.000000      0.000000
     2   1 1 0     -0.013926      0.000000      0.000000
     2   1 0 1     -0.900745      0.000000      0.000000
     2   0 2 0    -16.146630      0.000000      0.000000
     2   0 1 1     -0.166248      0.000000      0.000000

 Total times  cpu:        0.0s     wall:        0.1s
