============================== echo of input deck ==============================
echo

start molecule

memory total 40 gb

print low

title "der1"
charge 0

geometry units angstroms print xyz autosym
#  load format xyz VX.converged_geometry_blyp_tz2p-solvent-chcl3.xyz
#  load format xyz VX.geom.xyz
  load format xyz der1.pbe0_tz2p_good_cosmo-chcl3_optimized_geom.xyz
end

basis
  * library cc-pvdz
end

dft
  direct
  grid fine
  xc b3lyp
  mult 1
# Reduce output during geometry optimization
  #noprint "final vectors analysis"
end

property
  giao
  shielding
  spinspin
end

cosmo
  solvent chcl3
end

task dft energy
task dft property
================================================================================

 Output coordinates in angstroms (scale by  1.889725989 to convert to a.u.)

  No.       Tag          Charge          X              Y              Z
 ---- ---------------- ---------- -------------- -------------- --------------
    1 S                   16.0000     1.23117806    -0.05280310     0.65034358
    2 P                   15.0000    -0.11153162     0.99742341    -0.64399288
    3 O                    8.0000     0.70325785     2.32176571    -1.13880949
    4 O                    8.0000    -1.02579663     1.83043772     0.43301064
    5 C                    6.0000     0.51939995     3.46682519    -0.26448602
    6 C                    6.0000    -0.93081568     3.26598938     0.25874642
    7 C                    6.0000     1.56378270     3.41389595     0.83805494
    8 C                    6.0000     0.70781323     4.70858694    -1.10894842
    9 C                    6.0000    -1.98888323     3.67954111    -0.75200141
   10 C                    6.0000    -1.20028099     3.91105563     1.60132575
   11 H                    1.0000     1.53836690     4.32737141     1.43294182
   12 H                    1.0000     1.41448658     2.56709399     1.50840135
   13 H                    1.0000     2.55233656     3.32706057     0.38702394
   14 H                    1.0000     0.08138101     4.68675952    -1.99871820
   15 H                    1.0000     0.46271183     5.59966801    -0.52824856
   16 H                    1.0000     1.74971961     4.78535461    -1.42108549
   17 H                    1.0000    -2.03587714     4.76420074    -0.85070116
   18 H                    1.0000    -1.79476883     3.24922945    -1.73563941
   19 H                    1.0000    -2.96076805     3.32543640    -0.40755705
   20 H                    1.0000    -1.05360891     4.99076471     1.53644618
   21 H                    1.0000    -2.23461163     3.72844056     1.89396655
   22 H                    1.0000    -0.54738236     3.51398269     2.37611742
   23 C                    6.0000     1.00039003    -1.70643019    -0.06974101
   24 C                    6.0000    -0.14830783    -2.46232026     0.57447601
   25 N                    7.0000    -0.28431357    -3.79946901     0.03479998
   26 C                    6.0000     0.79589716    -4.69411461     0.45204069
   27 C                    6.0000     1.59915399    -5.25645406    -0.70754611
   28 C                    6.0000    -1.90267215    -5.58489292    -0.55550530
   29 C                    6.0000    -1.60750477    -4.35209739     0.27584533
   30 H                    1.0000     0.83679807    -1.60648894    -1.14420059
   31 H                    1.0000     1.95210352    -2.21816553     0.07420755
   32 H                    1.0000    -1.07291356    -1.91490367     0.37403989
   33 H                    1.0000    -0.01200891    -2.46061177     1.67006124
   34 H                    1.0000    -1.75027141    -4.59059092     1.34531324
   35 H                    1.0000    -2.33741659    -3.57758319     0.02935146
   36 H                    1.0000    -1.80578737    -5.36421990    -1.62012656
   37 H                    1.0000    -2.92152809    -5.92679051    -0.36414462
   38 H                    1.0000    -1.22936444    -6.40986183    -0.31613331
   39 H                    1.0000     0.38193075    -5.51811177     1.04535555
   40 H                    1.0000     1.46895592    -4.15714028     1.12852756
   41 H                    1.0000     0.96210202    -5.82760981    -1.38439790
   42 H                    1.0000     2.39083759    -5.91586920    -0.34334424
   43 H                    1.0000     2.06137299    -4.45276990    -1.28383492

         Total DFT energy =    -1417.782331442096
         Total DFT energy =    -1417.782331467915
      Atom:    1  S
           isotropic =     458.6980
      Atom:    2  P
           isotropic =     169.0627
      Atom:    3  O
           isotropic =     199.9859
      Atom:    4  O
           isotropic =     203.4612
      Atom:    5  C
           isotropic =     107.9779
      Atom:    6  C
           isotropic =     105.8451
      Atom:    7  C
           isotropic =     169.5434
      Atom:    8  C
           isotropic =     169.8204
      Atom:    9  C
           isotropic =     167.9401
      Atom:   10  C
           isotropic =     169.9455
      Atom:   11  H
           isotropic =      30.5356
      Atom:   12  H
           isotropic =      30.0336
      Atom:   13  H
           isotropic =      30.6248
      Atom:   14  H
           isotropic =      30.4445
      Atom:   15  H
           isotropic =      30.4616
      Atom:   16  H
           isotropic =      30.2271
      Atom:   17  H
           isotropic =      30.6811
      Atom:   18  H
           isotropic =      30.2903
      Atom:   19  H
           isotropic =      30.6536
      Atom:   20  H
           isotropic =      30.4396
      Atom:   21  H
           isotropic =      30.2652
      Atom:   22  H
           isotropic =      30.3898
      Atom:   23  C
           isotropic =     159.0832
      Atom:   24  C
           isotropic =     127.1461
      Atom:   25  N
           isotropic =     201.7945
      Atom:   26  C
           isotropic =     143.0262
      Atom:   27  C
           isotropic =     172.9477
      Atom:   28  C
           isotropic =     177.1370
      Atom:   29  C
           isotropic =     137.5625
      Atom:   30  H
           isotropic =      29.1640
      Atom:   31  H
           isotropic =      28.9424
      Atom:   32  H
           isotropic =      29.4990
      Atom:   33  H
           isotropic =      29.3258
      Atom:   34  H
           isotropic =      29.2637
      Atom:   35  H
           isotropic =      29.2596
      Atom:   36  H
           isotropic =      30.6926
      Atom:   37  H
           isotropic =      30.7026
      Atom:   38  H
           isotropic =      30.5517
      Atom:   39  H
           isotropic =      29.4050
      Atom:   40  H
           isotropic =      29.4246
      Atom:   41  H
           isotropic =      30.7077
      Atom:   42  H
           isotropic =      30.7315
      Atom:   43  H
           isotropic =      30.7060
 Total times  cpu:     5630.9s     wall:     5642.3s
