 Output coordinates in a.u. (scale by  1.000000000 to convert to a.u.)

  No.       Tag          Charge          X              Y              Z
 ---- ---------------- ---------- -------------- -------------- --------------
    1 O                    8.0000     0.00000000     0.00000000     0.22143053
    2 H                    1.0000    -1.43042809     0.00000000    -0.88572213
    3 H                    1.0000     1.43042809     0.00000000    -0.88572213

         Total SCF energy =    -75.983997570421

 Vector    2  Occ=2.000000D+00  E=-1.356396D+00  Symmetry=a1

 Vector    3  Occ=2.000000D+00  E=-7.102374D-01  Symmetry=b1

 Vector    4  Occ=2.000000D+00  E=-5.606196D-01  Symmetry=a1

 Vector    5  Occ=2.000000D+00  E=-5.013802D-01  Symmetry=b2

 Vector    6  Occ=0.000000D+00  E= 2.037857D-01  Symmetry=a1

 Vector    7  Occ=0.000000D+00  E= 2.998906D-01  Symmetry=b1

 Vector    8  Occ=0.000000D+00  E= 1.057688D+00  Symmetry=b1

 Vector    9  Occ=0.000000D+00  E= 1.164459D+00  Symmetry=b2

 Vector   10  Occ=0.000000D+00  E= 1.187499D+00  Symmetry=a1

 Vector   11  Occ=0.000000D+00  E= 1.215532D+00  Symmetry=a1

 Vector   12  Occ=0.000000D+00  E= 1.379583D+00  Symmetry=b1

 Vector   13  Occ=0.000000D+00  E= 1.696067D+00  Symmetry=a1

       Multipole analysis of the density wrt the origin
       ------------------------------------------------

     L   x y z        total         open         nuclear
     -   - - -        -----         ----         -------
     0   0 0 0     -0.000000      0.000000     10.000000

     1   1 0 0      0.000000      0.000000      0.000000
     1   0 1 0     -0.000000      0.000000      0.000000
     1   0 0 1     -1.034759      0.000000      0.000000

     2   2 0 0     -3.129724      0.000000      4.092249
     2   1 1 0     -0.000000      0.000000      0.000000
     2   1 0 1      0.000000      0.000000      0.000000
     2   0 2 0     -5.357230      0.000000      0.000000
     2   0 1 1      0.000000      0.000000      0.000000

 Total times  cpu:        0.1s     wall:        1.0s
