============================== echo of input deck ==============================
echo

start molecule

memory total 180 gb

print low

title "Rn@Quartz ecp"
charge 0

geometry units angstroms print xyz autosym
  load format xyz RnQgeom.xyz
end

basis
 * library crenbl_ecp
end

ecp
  Si library crenbl_ecp
  Rn library crenbl_ecp
end

dft
  xc revpbe cpbe96
  disp vdw 4
  maxiter 100
end

driver
  maxiter 999
  xyz RnQgeomconv
end

task dft optimize

#task dft frequencies

================================================================================

         Total DFT energy =    -5056.762001156992
@ Step       Energy      Delta E   Gmax     Grms     Xrms     Xmax   Walltime
@ ---- ---------------- -------- -------- -------- -------- -------- --------
@    0   -5056.76200116  0.0D+00  0.00046  0.00009  0.00000  0.00000    226.7
         Total DFT energy =    -5056.761875272543
         Total DFT energy =    -5056.762010511546
@    1   -5056.76201051 -9.4D-06  0.00062  0.00009  0.00320  0.01566    462.3
         Total DFT energy =    -5056.761479701472
         Total DFT energy =    -5056.762011447256
@    2   -5056.76201145 -9.4D-07  0.00026  0.00005  0.00224  0.00826    687.7
         Total DFT energy =    -5056.761878121742
         Total DFT energy =    -5056.762016458255
@    3   -5056.76201646 -5.0D-06  0.00027  0.00005  0.00205  0.01117    912.0
         Total DFT energy =    -5056.761936907518
         Total DFT energy =    -5056.762016199424
@    4   -5056.76201620  2.6D-07  0.00019  0.00004  0.00090  0.00340   1135.7
         Total DFT energy =    -5056.761994760345
         Total DFT energy =    -5056.762018757308
@    5   -5056.76201876 -2.6D-06  0.00027  0.00005  0.00161  0.01018   1358.6
         Total DFT energy =    -5056.761969101630
         Total DFT energy =    -5056.762025301297
@    6   -5056.76202530 -6.5D-06  0.00030  0.00007  0.00228  0.01206   1585.5
         Total DFT energy =    -5056.761956887640
         Total DFT energy =    -5056.762032636518
@    7   -5056.76203264 -7.3D-06  0.00050  0.00007  0.00209  0.00792   1811.5
         Total DFT energy =    -5056.761850602179
         Total DFT energy =    -5056.762031052418
@    8   -5056.76203105  1.6D-06  0.00032  0.00005  0.00140  0.00792   2034.9
         Total DFT energy =    -5056.762008882157
         Total DFT energy =    -5056.762036319345
@    9   -5056.76203632 -5.3D-06  0.00048  0.00007  0.00198  0.01358   2256.6
         Total DFT energy =    -5056.761944287999
         Total DFT energy =    -5056.762037093169
@   10   -5056.76203709 -7.7D-07  0.00025  0.00004  0.00168  0.00958   2479.9
         Total DFT energy =    -5056.762020005026
         Total DFT energy =    -5056.762036735661
@   11   -5056.76203674  3.6D-07  0.00024  0.00003  0.00109  0.00517   2703.7
         Total DFT energy =    -5056.762015106546
         Total DFT energy =    -5056.762038519508
@   12   -5056.76203852 -1.8D-06  0.00020  0.00004  0.00109  0.00645   2926.7
         Total DFT energy =    -5056.762015651111
         Total DFT energy =    -5056.762037016386
@   13   -5056.76203702  1.5D-06  0.00017  0.00003  0.00075  0.00330   3195.9
         Total DFT energy =    -5056.762008479698
         Total DFT energy =    -5056.762037421795
@   14   -5056.76203742 -4.1D-07  0.00021  0.00003  0.00090  0.00466   3419.8
         Total DFT energy =    -5056.762043269628
         Total DFT energy =    -5056.762036038908
@   15   -5056.76203604  1.4D-06  0.00086  0.00015  0.00775  0.03108   3663.8
         Total DFT energy =    -5056.762022906609
         Total DFT energy =    -5056.762036451124
@   16   -5056.76203645 -4.1D-07  0.00059  0.00010  0.00327  0.01244   3899.0
         Total DFT energy =    -5056.762022314280
         Total DFT energy =    -5056.762041818620
@   17   -5056.76204182 -5.4D-06  0.00036  0.00006  0.00236  0.01054   4160.9
         Total DFT energy =    -5056.762039330835
         Total DFT energy =  -5056.762039330835
@   18   -5056.76203933  2.5D-06  0.00044  0.00007  0.00430  0.01580   4316.0
         Total DFT energy =    -5056.762028191039
         Total DFT energy =    -5056.762037401342
@   19   -5056.76203740  1.9D-06  0.00035  0.00005  0.00123  0.00560   4542.0
         Total DFT energy =    -5056.762027174154
         Total DFT energy =    -5056.762038684112
@   20   -5056.76203868 -1.3D-06  0.00027  0.00004  0.00132  0.00484   4792.3
         Total DFT energy =    -5056.762038954272
         Total DFT energy =  -5056.762038954272
@   21   -5056.76203895 -2.7D-07  0.00047  0.00007  0.00356  0.01320   4943.2
         Total DFT energy =    -5056.762039708872
         Total DFT energy =  -5056.762039708872
@   22   -5056.76203971 -7.5D-07  0.00022  0.00003  0.00269  0.01185   5089.9
         Total DFT energy =    -5056.762033283965
         Total DFT energy =    -5056.762038622339
@   23   -5056.76203862  1.1D-06  0.00009  0.00002  0.00064  0.00483   5336.4
         Total DFT energy =    -5056.762041252099
         Total DFT energy =  -5056.762041252099
@   24   -5056.76204125 -2.6D-06  0.00020  0.00003  0.00163  0.00939   5479.3
         Total DFT energy =    -5056.762039460878
         Total DFT energy =  -5056.762039460878
@   25   -5056.76203946  1.8D-06  0.00015  0.00003  0.00173  0.01676   5616.2
         Total DFT energy =    -5056.762047234792
         Total DFT energy =    -5056.762046213629
@   26   -5056.76204621 -6.8D-06  0.00048  0.00009  0.00492  0.01991   5807.5
         Total DFT energy =    -5056.762048453547
         Total DFT energy =  -5056.762048453547
@   27   -5056.76204845 -2.2D-06  0.00019  0.00003  0.00397  0.01574   5953.6
         Total DFT energy =    -5056.762040144818
         Total DFT energy =    -5056.762047015865
@   28   -5056.76204702  1.4D-06  0.00011  0.00002  0.00085  0.00327   6157.1
         Total DFT energy =    -5056.762050417794
         Total DFT energy =  -5056.762050417794
@   29   -5056.76205042 -3.4D-06  0.00016  0.00002  0.00190  0.01061   6287.0
         Total DFT energy =    -5056.762049391677
         Total DFT energy =  -5056.762049391677
@   30   -5056.76204939  1.0D-06  0.00011  0.00002  0.00207  0.00918   6449.2
         Total DFT energy =    -5056.762052600821
         Total DFT energy =  -5056.762052600821
@   31   -5056.76205260 -3.2D-06  0.00022  0.00003  0.00198  0.00737   6583.6
         Total DFT energy =    -5056.762052196547
         Total DFT energy =  -5056.762052196547
@   32   -5056.76205220  4.0D-07  0.00012  0.00003  0.00174  0.00798   6711.3
         Total DFT energy =    -5056.762055016858
         Total DFT energy =  -5056.762055016858
@   33   -5056.76205502 -2.8D-06  0.00010  0.00002  0.00188  0.00685   6842.5
         Total DFT energy =    -5056.762055393938
         Total DFT energy =  -5056.762055393938
@   34   -5056.76205539 -3.8D-07  0.00006  0.00001  0.00104  0.00485   6968.8
         Total DFT energy =    -5056.762055066440
         Total DFT energy =  -5056.762055066440
@   35   -5056.76205507  3.3D-07  0.00007  0.00001  0.00093  0.00336   7108.6
         Total DFT energy =    -5056.762056168503
         Total DFT energy =  -5056.762056168503
@   36   -5056.76205617 -1.1D-06  0.00008  0.00001  0.00082  0.00329   7242.7
         Total DFT energy =    -5056.762056902324
         Total DFT energy =  -5056.762056902324
@   37   -5056.76205690 -7.3D-07  0.00008  0.00001  0.00102  0.00497   7379.7
         Total DFT energy =    -5056.762058497567
         Total DFT energy =  -5056.762058497567
@   38   -5056.76205850 -1.6D-06  0.00007  0.00001  0.00069  0.00303   7497.7
         Total DFT energy =    -5056.762061450598
         Total DFT energy =  -5056.762061450598
@   39   -5056.76206145 -3.0D-06  0.00011  0.00002  0.00134  0.00488   7647.3
         Total DFT energy =    -5056.762061576141
         Total DFT energy =  -5056.762061576141
@   40   -5056.76206158 -1.3D-07  0.00007  0.00001  0.00101  0.00534   7781.6
         Total DFT energy =    -5056.762060734334
         Total DFT energy =  -5056.762060734334
@   41   -5056.76206073  8.4D-07  0.00008  0.00001  0.00080  0.00512   7911.8
         Total DFT energy =    -5056.762061374498
         Total DFT energy =  -5056.762061374498
@   42   -5056.76206137 -6.4D-07  0.00008  0.00001  0.00073  0.00316   8066.0
         Total DFT energy =    -5056.762063191883
         Total DFT energy =  -5056.762063191883
@   43   -5056.76206319 -1.8D-06  0.00006  0.00001  0.00101  0.00455   8205.2
         Total DFT energy =    -5056.762062034246
         Total DFT energy =  -5056.762062034246
@   44   -5056.76206203  1.2D-06  0.00007  0.00001  0.00094  0.00395   8339.3
         Total DFT energy =    -5056.762062666527
         Total DFT energy =  -5056.762062666527
@   45   -5056.76206267 -6.3D-07  0.00005  0.00001  0.00062  0.00256   8459.9
         Total DFT energy =    -5056.762062262798
         Total DFT energy =  -5056.762062262798
@   46   -5056.76206226  4.0D-07  0.00005  0.00001  0.00055  0.00272   8577.1
         Total DFT energy =    -5056.762063185841
         Total DFT energy =  -5056.762063185841
@   47   -5056.76206319 -9.2D-07  0.00014  0.00002  0.00094  0.00717   8731.3
         Total DFT energy =    -5056.762062453945
         Total DFT energy =  -5056.762062453945
@   48   -5056.76206245  7.3D-07  0.00009  0.00001  0.00054  0.00190   8846.9
         Total DFT energy =    -5056.762061361344
         Total DFT energy =  -5056.762061361344
@   49   -5056.76206136  1.1D-06  0.00007  0.00001  0.00112  0.00378   8968.6
         Total DFT energy =    -5056.762063481434
         Total DFT energy =  -5056.762063481434
@   50   -5056.76206348 -2.1D-06  0.00031  0.00003  0.00065  0.00237   9102.7
         Total DFT energy =    -5056.762064753770
         Total DFT energy =  -5056.762064753770
@   51   -5056.76206475 -1.3D-06  0.00014  0.00002  0.00076  0.00409   9221.0
         Total DFT energy =    -5056.762063649261
         Total DFT energy =  -5056.762063649261
@   52   -5056.76206365  1.1D-06  0.00016  0.00002  0.00084  0.00304   9348.8
         Total DFT energy =    -5056.762067229633
         Total DFT energy =  -5056.762067229633
@   53   -5056.76206723 -3.6D-06  0.00007  0.00001  0.00052  0.00233   9465.7
         Total DFT energy =    -5056.762066248557
         Total DFT energy =  -5056.762066248557
@   54   -5056.76206625  9.8D-07  0.00004  0.00001  0.00033  0.00120   9590.6
@   54   -5056.76206625  9.8D-07  0.00004  0.00001  0.00033  0.00120   9590.6

 Output coordinates in angstroms (scale by  1.889725989 to convert to a.u.)

  No.       Tag          Charge          X              Y              Z
 ---- ---------------- ---------- -------------- -------------- --------------
    1 O                    8.0000    -2.93984053     1.69285301    -5.05009178
    2 H                    1.0000     1.93773365    -5.78293550     0.17635954
    3 H                    1.0000    -5.90668818     9.53442435     1.40848812
    4 Si                  14.0000     0.83481672    -8.62132312     3.31673292
    5 Si                  14.0000    -0.28920228    -7.67988669    -1.00173021
    6 Si                  14.0000    -0.90392541    -4.07875175    -5.22012868
    7 H                    1.0000    -1.44861811     6.24754347    -1.02962435
    8 Si                  14.0000     2.98577956    -4.88488785     2.26896181
    9 Si                  14.0000     0.06178830    -2.41350404    -1.07888709
   10 Si                  14.0000    -2.91295669     0.62634692    -3.78703196
   11 H                    1.0000     2.72223123     3.28198327    -2.03713030
   12 Si                  14.0000     4.85628745    -0.47268449    -0.13491446
   13 Si                  14.0000     0.61149834     2.41532801    -0.46691803
   14 Si                  14.0000    -3.83435708     4.72223969    -0.67339204
   15 H                    1.0000     1.55346382    -7.83562061     0.76324332
   16 Si                  14.0000     4.85485112     4.61021325    -2.03763494
   17 Si                  14.0000     0.81642050     7.15849666    -0.49767269
   18 Si                  14.0000    -3.68064015     8.39869095     2.18240096
   19 O                    8.0000     3.38384905    -0.60546871    -0.93130043
   20 O                    8.0000    -3.68908846    -5.04983617     3.48876557
   21 O                    8.0000    -6.09425004    -4.78325105    -1.80609819
   22 O                    8.0000     1.67190415     6.37425861    -1.67779129
   23 O                    8.0000    -0.47996599     2.70811758    -1.70341335
   24 O                    8.0000     0.60268794    -1.90822318     4.86538513
   25 O                    8.0000    -4.74047251    -1.00084705     1.97713718
   26 O                    8.0000    -2.60288229     8.24847598     0.94072482
   27 O                    8.0000    -4.62637763     6.04826269    -1.26159635
   28 O                    8.0000     3.38712745     2.39619044     3.84895748
   29 O                    8.0000    -1.09551380     2.46331240     3.99766399
   30 H                    1.0000     2.70656913    -1.30177360    -1.04831349
   31 H                    1.0000     6.22962874     4.33161015    -4.24136895
   32 O                    8.0000    -2.26235539     4.67693581    -1.22995529
   33 O                    8.0000    -0.00836905    -1.81448346    -2.63037596
   34 O                    8.0000     0.62021702    -5.04200999     5.84267232
   35 O                    8.0000     5.32909508     1.10280465     0.02903592
   36 Si                  14.0000     4.05690044     3.66213271     3.02178498
   37 Si                  14.0000    -1.01037815     4.14172175     3.93825681
   38 O                    8.0000    -2.15963530    -4.75768279     1.24822042
   39 O                    8.0000    -4.37893809    -3.12459932    -3.12565554
   40 H                    1.0000    -4.97843322     6.88959498    -1.54119230
   41 H                    1.0000     3.02903638    -7.67771749     2.41563249
   42 Si                  14.0000     0.42320021    -5.54349061     4.27218312
   43 O                    8.0000     5.50385245     3.66652558    -0.82104956
   44 O                    8.0000     1.17010952     6.31157682     0.91879386
   45 O                    8.0000     3.28938694     4.04824533    -2.23371930
   46 Si                  14.0000    -1.98289803    -4.91266938    -0.39672726
   47 O                    8.0000     0.16938822     4.59950579     2.86719788
   48 H                    1.0000     2.18800169     5.66552357    -2.09426933
   49 H                    1.0000    -5.99336257     4.25077410     3.77615470
   50 Si                  14.0000    -3.75116602    -2.50087675    -4.53272287
   51 O                    8.0000     2.78386754     4.48094833     2.29986976
   52 O                    8.0000    -0.82566464     6.95553649    -0.75291835
   53 O                    8.0000    -1.29405019    -6.38342175    -0.76135775
   54 O                    8.0000    -3.83747773     4.79332226     0.99360957
   55 O                    8.0000     5.26207153    -1.73190473     3.95513976
   56 O                    8.0000    -5.10340673     9.10395365     1.68549373
   57 O                    8.0000    -2.35743416    -3.34079424    -4.90621939
   58 H                    1.0000     1.38692457   -10.52354403     5.00946415
   59 O                    8.0000     0.14102481    -0.53891698     2.54840013
   60 H                    1.0000    -2.93658919     2.34672172    -5.74445264
   61 H                    1.0000     2.59887295     0.98930672    -1.17431508
   62 O                    8.0000     4.80337966     6.20268839    -1.59161641
   63 O                    8.0000    -4.41125592     0.91089836     0.07766348
   64 H                    1.0000     5.39009870     5.27640423     4.58138828
   65 O                    8.0000     3.67628806    -3.40106165     2.46567957
   66 O                    8.0000     1.19858136     8.76140000    -0.35803995
   67 H                    1.0000    -0.49888569     5.11634093     6.30019700
   68 O                    8.0000    -3.04810462     9.26688878     3.45025872
   69 H                    1.0000    -5.48397223    -2.66549252    -6.47646713
   70 H                    1.0000    -7.41306004     1.21466554    -1.79668612
   71 H                    1.0000     8.43842407     2.61137281     0.86912924
   72 H                    1.0000    -4.44543587    -5.50254874     3.85221083
   73 H                    1.0000    -6.84698044    -5.35936077    -1.90475106
   74 O                    8.0000     1.72728223    -5.07807236     3.33533674
   75 O                    8.0000    -0.90142774    -3.74857326    -0.89537519
   76 H                    1.0000     0.33478557    -2.70449261     5.32439020
   77 H                    1.0000    -4.93768917    -1.80466087     2.45797619
   78 O                    8.0000    -5.14973554     4.37117211     3.34358074
   79 O                    8.0000    -2.47576856     4.66055138     3.34895634
   80 O                    8.0000     5.73540336     4.41728242    -3.43126396
   81 O                    8.0000     1.04823037    -7.52661905    -0.02197714
   82 H                    1.0000     5.01486523    -6.39507965     2.76216673
   83 O                    8.0000    -3.33212575    -0.91214867    -4.26475428
   84 O                    8.0000    -2.40458270    -2.69927436     2.97130490
   85 O                    8.0000    -5.07401728    -2.57681861    -0.53725325
   86 O                    8.0000    -0.58853339    -5.25834716    -4.10937419
   87 H                    1.0000     2.78413303     1.73788108     4.22623722
   88 O                    8.0000     1.13406173     0.80512406     4.58610268
   89 O                    8.0000    -4.23393046     1.62116294     2.68203394
   90 H                    1.0000     0.09449678    -2.08305284    -3.56976283
   91 O                    8.0000    -0.97232959    -4.91265288     3.64849871
   92 O                    8.0000     4.90918670     4.67523966     4.02006491
   93 O                    8.0000    -0.70300921     4.74223594     5.44721312
   94 O                    8.0000     4.13079889    -6.08752627     2.56337408
   95 O                    8.0000    -3.44291873    -4.61935212    -1.11371475
   96 H                    1.0000    -1.59182856     1.67698004     3.76062782
   97 O                    8.0000     5.04548309     3.12352737     1.79006346
   98 O                    8.0000     1.63920256    -2.83111806    -0.70818411
   99 H                    1.0000    -0.85780361     2.11372186    -2.39151575
  100 H                    1.0000     0.76924960    -4.91704331     6.77761431
  101 O                    8.0000    -4.84211074    -2.61827199    -5.77325669
  102 H                    1.0000    -1.94283960     7.94068903     0.28736086
  103 O                    8.0000     4.58267217    -1.11996676     1.37851222
  104 O                    8.0000     6.01502382    -1.34802283    -0.93542791
  105 H                    1.0000     5.92665859    -1.56538403     4.61878757
  106 Si                  14.0000     5.86533910     2.63657946     0.42968102
  107 O                    8.0000    -0.08742339     1.26085414     0.51383372
  108 O                    8.0000    -0.46487002    -1.28716357     0.01545795
  109 O                    8.0000     2.67257504    -1.11020602     3.34108645
  110 Si                  14.0000     1.29836607     4.84269240     1.66630322
  111 H                    1.0000    -0.45519230    -5.94649075    -3.45003225
  112 H                    1.0000    -4.51164283     2.46503045     3.06507703
  113 H                    1.0000    -2.30541387    -1.75156698     2.87338660
  114 Si                  14.0000    -3.87111142     5.17287099     2.61054075
  115 O                    8.0000     0.94842942     3.72757166     0.46518639
  116 O                    8.0000     1.21649468    -9.81937066     4.38916976
  117 O                    8.0000    -1.37335131     0.53090170    -3.12870937
  118 H                    1.0000    -1.53042435     4.06216067    -1.48404405
  119 O                    8.0000    -4.54974502     3.28232904    -1.11164303
  120 H                    1.0000     6.69663765    -1.81135091    -1.41456008
  121 H                    1.0000     0.56746712    -7.94570022    -3.44335719
  122 Si                  14.0000     4.08346702    -1.80644353     2.79899851
  123 H                    1.0000     2.14091322    -3.53827677    -0.25560679
  124 H                    1.0000     1.02177995    -2.39664232    -5.51484429
  125 O                    8.0000    -0.32772619    -9.08128880     2.23989288
  126 Si                  14.0000    -0.68996271    -0.12402536     1.17620236
  127 O                    8.0000    -2.30238269     0.05331783     1.57470072
  128 O                    8.0000     2.18553545    -8.15978553     2.40352925
  129 O                    8.0000    -1.08705006    -9.10299044    -0.61954499
  130 Si                  14.0000    -4.88933739     1.67007403    -1.33358715
  131 H                    1.0000    -0.73474924    -0.16809424    -2.87377541
  132 O                    8.0000     7.49939411     2.59094647     0.70805967
  133 O                    8.0000     2.39139906    -5.11373217     0.72072850
  134 O                    8.0000     0.16443584    -7.71442722    -2.60764654
  135 O                    8.0000    -6.49369205     1.39336462    -1.61825797
  136 O                    8.0000     0.42277353    -7.20480975     4.10686848
  137 O                    8.0000    -0.88502084    -4.69330962    -6.76312214
  138 O                    8.0000     0.28789504    -2.88020467    -5.13327515
  139 Si                  14.0000    -2.32758907    -4.34664997     2.85662025
  140 Si                  14.0000     1.15072350    -0.70261885     3.87421167
  141 H                    1.0000    -0.82743141    -9.22055483     1.42945255
  142 H                    1.0000    -1.62723880    -9.88564644    -0.71897622
  143 Si                  14.0000    -4.79136167    -3.77255206    -1.64598661
  144 Si                  14.0000    -3.94550631     0.41353874     1.58906126
  145 H                    1.0000    -0.94180380    -5.05291773    -7.64441977
  146 O                    8.0000    -4.00007512     6.82195028     2.69167703
  147 O                    8.0000     1.99314871     1.76294952    -1.12907213
  148 H                    1.0000    -5.10922404    -1.89766852     0.14527646
  149 O                    8.0000    -3.95805044     1.12294478    -2.59501033
  150 H                    1.0000     0.55018191     1.57679484     4.67542449
  151 H                    1.0000    -2.63623916     9.74536264     4.16364186
  152 H                    1.0000     1.33558671     9.69868435    -0.25333648
  153 H                    1.0000     4.55729631     7.08344529    -1.31903630
  154 Rn                  86.0000     2.78311942     0.82009662    -5.31113664

 Total times  cpu:     8654.2s     wall:     9592.0s
