============================== echo of input deck ==============================
echo

start molecule

memory total 40 gb

print low

title "der7"
charge 0

geometry units angstroms print xyz autosym
#  load format xyz VX.converged_geometry_blyp_tz2p-solvent-chcl3.xyz
#  load format xyz VX.geom.xyz
#  load format xyz der1.pbe0_tz2p_good_cosmo-chcl3_optimized_geom.xyz
  load format xyz der7.geopt_freq_nmr_pbe0_tz2p_good_cosmo-chcl3_converged_geometry.xyz
end

basis
  * library cc-pvdz
end

dft
  direct
  grid fine
  xc b3lyp
  mult 1
# Reduce output during geometry optimization
  #noprint "final vectors analysis"
end

property
  giao
  shielding
  spinspin
end

cosmo
  solvent chcl3
end

task dft energy
task dft property
================================================================================

 Output coordinates in angstroms (scale by  1.889725989 to convert to a.u.)

  No.       Tag          Charge          X              Y              Z
 ---- ---------------- ---------- -------------- -------------- --------------
    1 O                    8.0000    -0.50216668     0.85537211    -0.12834916
    2 P                   15.0000    -0.63064458    -0.32262092     0.97996985
    3 O                    8.0000     0.81731041    -1.07428424     0.93530794
    4 O                    8.0000    -1.35852625    -1.46521994     0.06116893
    5 C                    6.0000     0.91464622    -2.08240142    -0.10218592
    6 C                    6.0000    -0.54003015    -2.63146921    -0.18307282
    7 C                    6.0000     1.37877018    -1.41794955    -1.38943746
    8 C                    6.0000     1.93645133    -3.10318597     0.35292889
    9 C                    6.0000    -0.85332417    -3.64722040     0.90495537
   10 C                    6.0000    -0.91535686    -3.18562729    -1.54186113
   11 H                    1.0000     1.57599348    -2.16510174    -2.15916846
   12 H                    1.0000     0.64489947    -0.70635141    -1.76420937
   13 H                    1.0000     2.30697768    -0.88070084    -1.19121678
   14 H                    1.0000     1.71188744    -3.48025475     1.34896416
   15 H                    1.0000     1.96663009    -3.94444128    -0.34221403
   16 H                    1.0000     2.92657159    -2.64638347     0.37160271
   17 H                    1.0000    -0.34207195    -4.59292309     0.72299894
   18 H                    1.0000    -0.56491609    -3.27844384     1.89026687
   19 H                    1.0000    -1.92744661    -3.83492259     0.90968779
   20 H                    1.0000    -0.26399523    -4.02202605    -1.80285109
   21 H                    1.0000    -1.94176217    -3.55327708    -1.51658532
   22 H                    1.0000    -0.83963082    -2.42687038    -2.31834208
   23 C                    6.0000    -0.81161689     2.21103554     0.23479712
   24 C                    6.0000     0.42840678     3.09664450     0.00367522
   25 H                    1.0000    -2.87631653     1.93572748    -0.26216086
   26 H                    1.0000    -1.90303754     2.55280710    -1.59921943
   27 C                    6.0000     0.86121657     3.07873324    -1.46025626
   28 C                    6.0000     1.57155175     2.57622489     0.87390018
   29 H                    1.0000    -2.37016686     3.62554514    -0.26749123
   30 C                    6.0000    -2.06065462     2.61199595    -0.52157872
   31 H                    1.0000    -1.02815055     2.23700245     1.31139438
   32 C                    6.0000     0.10575282     4.52859834     0.42940749
   33 H                    1.0000     2.44789781     3.21933446     0.76737454
   34 H                    1.0000     1.85788219     1.56240111     0.59192528
   35 H                    1.0000     1.28861102     2.56824952     1.93042760
   36 H                    1.0000     0.09981115     3.50794677    -2.11433398
   37 H                    1.0000     1.06666725     2.06045355    -1.79421485
   38 H                    1.0000     1.77310873     3.66729554    -1.58526188
   39 H                    1.0000     1.00991617     5.13972713     0.38740363
   40 H                    1.0000    -0.27136068     4.56266354     1.45519830
   41 H                    1.0000    -0.63614787     4.99264128    -0.22217622

         Total DFT energy =    -1039.468237231477
         Total DFT energy =    -1039.468237247200
      Atom:    1  O
           isotropic =     162.1284
      Atom:    2  P
           isotropic =     246.8670
      Atom:    3  O
           isotropic =     183.9025
      Atom:    4  O
           isotropic =     190.3874
      Atom:    5  C
           isotropic =     109.2895
      Atom:    6  C
           isotropic =     106.7058
      Atom:    7  C
           isotropic =     166.2288
      Atom:    8  C
           isotropic =     169.0826
      Atom:    9  C
           isotropic =     166.6082
      Atom:   10  C
           isotropic =     169.3396
      Atom:   11  H
           isotropic =      30.4795
      Atom:   12  H
           isotropic =      29.6168
      Atom:   13  H
           isotropic =      30.4627
      Atom:   14  H
           isotropic =      30.4731
      Atom:   15  H
           isotropic =      30.4812
      Atom:   16  H
           isotropic =      30.2876
      Atom:   17  H
           isotropic =      30.6566
      Atom:   18  H
           isotropic =      30.3622
      Atom:   19  H
           isotropic =      30.5939
      Atom:   20  H
           isotropic =      30.4206
      Atom:   21  H
           isotropic =      30.2823
      Atom:   22  H
           isotropic =      30.3009
      Atom:   23  C
           isotropic =     112.3772
      Atom:   24  C
           isotropic =     155.1175
      Atom:   25  H
           isotropic =      30.8047
      Atom:   26  H
           isotropic =      30.4151
      Atom:   27  C
           isotropic =     171.4255
      Atom:   28  C
           isotropic =     163.2027
      Atom:   29  H
           isotropic =      30.4290
      Atom:   30  C
           isotropic =     174.7864
      Atom:   31  H
           isotropic =      27.8802
      Atom:   32  C
           isotropic =     164.6656
      Atom:   33  H
           isotropic =      30.9278
      Atom:   34  H
           isotropic =      30.1785
      Atom:   35  H
           isotropic =      30.9251
      Atom:   36  H
           isotropic =      30.6325
      Atom:   37  H
           isotropic =      30.5404
      Atom:   38  H
           isotropic =      31.0330
      Atom:   39  H
           isotropic =      30.7932
      Atom:   40  H
           isotropic =      30.8424
      Atom:   41  H
           isotropic =      30.6616
 Total times  cpu:     4403.8s     wall:     4406.5s
