============================== echo of input deck ==============================
echo

start molecule

print low

title "Q-G ecp"
charge 0

geometry units angstroms print xyz autosym
  load format xyz QG_geom3-090.xyz
end

basis
 * library lanl2dz_ecp
end

ecp
  Si library lanl2dz_ecp
end

dft
  xc b3lyp
  mult 1
  maxiter 100
end

driver
  maxiter 999
  xyz QG_geom4
end

task dft optimize

#task dft frequencies

================================================================================

         Total DFT energy =    -6005.846796382521
@ Step       Energy      Delta E   Gmax     Grms     Xrms     Xmax   Walltime
@ ---- ---------------- -------- -------- -------- -------- -------- --------
@    0   -6005.84679638  0.0D+00  0.00462  0.00052  0.00000  0.00000    105.1
         Total DFT energy =    -6005.814976121896
         Total DFT energy =    -6005.846792596913
@    1   -6005.84679260  3.8D-06  0.00742  0.00078  0.00776  0.04118    274.2
         Total DFT energy =    -6005.844081708281
         Total DFT energy =    -6005.846859730122
@    2   -6005.84685973 -6.7D-05  0.00526  0.00060  0.00584  0.02762    370.2
         Total DFT energy =    -6005.842233122839
         Total DFT energy =    -6005.846928136336
@    3   -6005.84692814 -6.8D-05  0.00376  0.00049  0.00506  0.02593    523.7
         Total DFT energy =    -6005.842930961469
         Total DFT energy =    -6005.847001318984
@    4   -6005.84700132 -7.3D-05  0.00268  0.00038  0.00672  0.02871    659.9
         Total DFT energy =    -6005.844583551356
         Total DFT energy =    -6005.847077322847
@    5   -6005.84707732 -7.6D-05  0.00169  0.00024  0.00804  0.03635    835.5
         Total DFT energy =    -6005.844870253492
         Total DFT energy =    -6005.847127637247
@    6   -6005.84712764 -5.0D-05  0.00244  0.00036  0.00435  0.01976    954.1
         Total DFT energy =    -6005.845320686993
         Total DFT energy =    -6005.847185179959
@    7   -6005.84718518 -5.8D-05  0.00296  0.00038  0.00524  0.01970   1089.6
         Total DFT energy =    -6005.846328299383
         Total DFT energy =    -6005.847247789603
@    8   -6005.84724779 -6.3D-05  0.00369  0.00047  0.00644  0.02239   1237.1
         Total DFT energy =    -6005.846532496795
         Total DFT energy =    -6005.847319340093
@    9   -6005.84731934 -7.2D-05  0.00358  0.00043  0.00864  0.03175   1352.2
         Total DFT energy =    -6005.846547452991
         Total DFT energy =    -6005.847395131550
@   10   -6005.84739513 -7.6D-05  0.00289  0.00040  0.00824  0.02977   1465.6
         Total DFT energy =    -6005.845420048365
         Total DFT energy =    -6005.847448918830
@   11   -6005.84744892 -5.4D-05  0.00232  0.00031  0.00499  0.03211   1608.1
         Total DFT energy =    -6005.846577093453
         Total DFT energy =    -6005.847523135097
@   12   -6005.84752314 -7.4D-05  0.00099  0.00022  0.00614  0.02218   1718.7
         Total DFT energy =    -6005.847301238729
         Total DFT energy =    -6005.847601652506
@   13   -6005.84760165 -7.9D-05  0.00169  0.00028  0.00819  0.03172   1897.2
         Total DFT energy =    -6005.847635779934
         Total DFT energy =    -6005.847732387465
@   14   -6005.84773239 -1.3D-04  0.00224  0.00032  0.00828  0.03827   2003.2
         Total DFT energy =    -6005.847584070227
         Total DFT energy =    -6005.847817784597
@   15   -6005.84781778 -8.5D-05  0.00212  0.00031  0.00885  0.03289   2129.2
         Total DFT energy =    -6005.847533967091
         Total DFT energy =    -6005.847887705902
@   16   -6005.84788771 -7.0D-05  0.00111  0.00024  0.00857  0.03115   2248.5
         Total DFT energy =    -6005.847858693236
         Total DFT energy =    -6005.847982170453
@   17   -6005.84798217 -9.4D-05  0.00113  0.00022  0.00971  0.03739   2362.4
         Total DFT energy =    -6005.847582072096
         Total DFT energy =    -6005.848037472104
@   18   -6005.84803747 -5.5D-05  0.00166  0.00025  0.00766  0.02876   2514.8
         Total DFT energy =    -6005.847815209461
         Total DFT energy =    -6005.848108235456
@   19   -6005.84810824 -7.1D-05  0.00189  0.00023  0.00719  0.02849   2646.5
         Total DFT energy =    -6005.848061417360
         Total DFT energy =    -6005.848172170467
@   20   -6005.84817217 -6.4D-05  0.00093  0.00022  0.00762  0.03074   2760.3
         Total DFT energy =    -6005.848110550174
         Total DFT energy =    -6005.848259599668
@   21   -6005.84825960 -8.7D-05  0.00127  0.00021  0.00884  0.03271   2872.1
         Total DFT energy =    -6005.848133696963
         Total DFT energy =    -6005.848318931457
@   22   -6005.84831893 -5.9D-05  0.00209  0.00024  0.00806  0.02873   2983.7
         Total DFT energy =    -6005.848373826160
         Total DFT energy =    -6005.848401183233
@   23   -6005.84840118 -8.2D-05  0.00135  0.00021  0.00907  0.03177   3102.1
         Total DFT energy =    -6005.848463172071
         Total DFT energy =    -6005.848510078318
@   24   -6005.84851008 -1.1D-04  0.00093  0.00021  0.00917  0.04652   3216.9
         Total DFT energy =    -6005.848457284246
         Total DFT energy =    -6005.848587058688
@   25   -6005.84858706 -7.7D-05  0.00160  0.00026  0.00879  0.05114   3332.6
         Total DFT energy =    -6005.848574968684
         Total DFT energy =    -6005.848680800849
@   26   -6005.84868080 -9.4D-05  0.00134  0.00026  0.00837  0.04561   3432.5
         Total DFT energy =    -6005.848711192826
         Total DFT energy =    -6005.848787738898
@   27   -6005.84878774 -1.1D-04  0.00109  0.00020  0.00892  0.03800   3547.3
         Total DFT energy =    -6005.848838159862
         Total DFT energy =    -6005.848881811628
@   28   -6005.84888181 -9.4D-05  0.00125  0.00022  0.00839  0.02790   3817.9
         Total DFT energy =    -6005.848851221908
         Total DFT energy =    -6005.848964942390
@   29   -6005.84896494 -8.3D-05  0.00230  0.00027  0.00735  0.04034   3938.4
         Total DFT energy =    -6005.849029152399
         Total DFT energy =    -6005.849066211849
@   30   -6005.84906621 -1.0D-04  0.00193  0.00027  0.00873  0.03189   4073.6
         Total DFT energy =    -6005.849068226460
         Total DFT energy =  -6005.849068226460
@   31   -6005.84906823 -2.0D-06  0.00241  0.00040  0.01588  0.07516   4173.6
         Total DFT energy =    -6005.849286978246
         Total DFT energy =    -6005.849289914935
@   32   -6005.84928991 -2.2D-04  0.00136  0.00025  0.01211  0.05311   4264.9
         Total DFT energy =    -6005.856468796814
         Total DFT energy =  -6005.856468796814
@  142   -6005.85646880 -1.8D-06  0.00006  0.00001  0.00101  0.00682  17781.6
         Total DFT energy =    -6005.856470485134
         Total DFT energy =  -6005.856470485134
@  143   -6005.85647049 -1.7D-06  0.00008  0.00001  0.00098  0.00331  17897.0
         Total DFT energy =    -6005.856471712199
         Total DFT energy =  -6005.856471712199
@  144   -6005.85647171 -1.2D-06  0.00009  0.00001  0.00066  0.00532  17953.2
         Total DFT energy =    -6005.856473158085
         Total DFT energy =  -6005.856473158085
@  145   -6005.85647316 -1.4D-06  0.00005  0.00001  0.00073  0.00435  18017.5
         Total DFT energy =    -6005.856474636992
         Total DFT energy =  -6005.856474636992
@  146   -6005.85647464 -1.5D-06  0.00009  0.00001  0.00074  0.00371  18078.2
         Total DFT energy =    -6005.856476349985
         Total DFT energy =  -6005.856476349985
@  147   -6005.85647635 -1.7D-06  0.00008  0.00001  0.00093  0.00620  18153.7
         Total DFT energy =    -6005.856478603586
         Total DFT energy =  -6005.856478603586
@  148   -6005.85647860 -2.3D-06  0.00008  0.00001  0.00108  0.00586  18254.8
         Total DFT energy =    -6005.856480796017
         Total DFT energy =  -6005.856480796017
@  149   -6005.85648080 -2.2D-06  0.00006  0.00001  0.00129  0.00662  18324.1
         Total DFT energy =    -6005.856483295491
         Total DFT energy =  -6005.856483295491
@  150   -6005.85648330 -2.5D-06  0.00006  0.00001  0.00110  0.00577  18416.7
         Total DFT energy =    -6005.856485654553
         Total DFT energy =  -6005.856485654553
@  151   -6005.85648565 -2.4D-06  0.00006  0.00001  0.00121  0.00519  18501.5
         Total DFT energy =    -6005.856487234592
         Total DFT energy =  -6005.856487234592
@  152   -6005.85648723 -1.6D-06  0.00007  0.00001  0.00074  0.00323  18611.1
         Total DFT energy =    -6005.856488549332
         Total DFT energy =  -6005.856488549332
@  153   -6005.85648855 -1.3D-06  0.00005  0.00001  0.00073  0.00299  18683.4
         Total DFT energy =    -6005.856489498310
         Total DFT energy =  -6005.856489498310
@  154   -6005.85648950 -9.5D-07  0.00006  0.00001  0.00053  0.00212  18736.8
         Total DFT energy =    -6005.856490737457
         Total DFT energy =  -6005.856490737457
@  155   -6005.85649074 -1.2D-06  0.00008  0.00001  0.00073  0.00340  18801.8
         Total DFT energy =    -6005.856491649749
         Total DFT energy =  -6005.856491649749
@  156   -6005.85649165 -9.1D-07  0.00010  0.00001  0.00075  0.00320  18874.7
         Total DFT energy =    -6005.856493007988
         Total DFT energy =  -6005.856493007988
@  157   -6005.85649301 -1.4D-06  0.00012  0.00002  0.00069  0.00243  18962.0
         Total DFT energy =    -6005.856494233452
         Total DFT energy =  -6005.856494233452
@  158   -6005.85649423 -1.2D-06  0.00006  0.00001  0.00072  0.00252  19029.0
         Total DFT energy =    -6005.856495371721
         Total DFT energy =  -6005.856495371721
@  159   -6005.85649537 -1.1D-06  0.00011  0.00001  0.00061  0.00186  19106.9
         Total DFT energy =    -6005.856496077937
         Total DFT energy =  -6005.856496077937
@  160   -6005.85649608 -7.1D-07  0.00006  0.00001  0.00064  0.00216  19203.1
         Total DFT energy =    -6005.856496282242
         Total DFT energy =  -6005.856496282242
@  161   -6005.85649628 -2.0D-07  0.00006  0.00001  0.00077  0.00305  19260.7
         Total DFT energy =    -6005.856496941527
         Total DFT energy =  -6005.856496941527
@  162   -6005.85649694 -6.6D-07  0.00005  0.00001  0.00091  0.00352  19340.4
         Total DFT energy =    -6005.856497520454
         Total DFT energy =  -6005.856497520454
@  163   -6005.85649752 -5.8D-07  0.00005  0.00001  0.00059  0.00428  19439.9
         Total DFT energy =    -6005.856497981655
         Total DFT energy =  -6005.856497981655
@  164   -6005.85649798 -4.6D-07  0.00005  0.00001  0.00082  0.00388  19511.5
         Total DFT energy =    -6005.856498775694
         Total DFT energy =  -6005.856498775694
@  165   -6005.85649878 -7.9D-07  0.00005  0.00001  0.00067  0.00560  19600.5
         Total DFT energy =    -6005.856499290097
         Total DFT energy =  -6005.856499290097
@  166   -6005.85649929 -5.1D-07  0.00006  0.00001  0.00080  0.00472  19662.5
         Total DFT energy =    -6005.856499840898
         Total DFT energy =  -6005.856499840898
@  167   -6005.85649984 -5.5D-07  0.00006  0.00001  0.00064  0.00512  19721.3
         Total DFT energy =    -6005.856500504869
         Total DFT energy =  -6005.856500504869
@  168   -6005.85650050 -6.6D-07  0.00006  0.00001  0.00054  0.00268  19799.6
         Total DFT energy =    -6005.856500954684
         Total DFT energy =  -6005.856500954684
@  169   -6005.85650095 -4.5D-07  0.00006  0.00001  0.00042  0.00346  19872.1
         Total DFT energy =    -6005.856501536578
         Total DFT energy =  -6005.856501536578
@  170   -6005.85650154 -5.8D-07  0.00006  0.00001  0.00045  0.00222  19954.5
         Total DFT energy =    -6005.856502043058
         Total DFT energy =  -6005.856502043058
@  171   -6005.85650204 -5.1D-07  0.00004  0.00001  0.00041  0.00324  20019.0
         Total DFT energy =    -6005.856502669478
         Total DFT energy =  -6005.856502669478
@  172   -6005.85650267 -6.3D-07  0.00003  0.00001  0.00039  0.00232  20075.3
         Total DFT energy =    -6005.856503271982
         Total DFT energy =  -6005.856503271982
@  173   -6005.85650327 -6.0D-07  0.00004  0.00001  0.00035  0.00245  20158.9
         Total DFT energy =    -6005.856504018437
         Total DFT energy =  -6005.856504018437
@  174   -6005.85650402 -7.5D-07  0.00005  0.00001  0.00037  0.00165  20282.3
@  174   -6005.85650402 -7.5D-07  0.00005  0.00001  0.00037  0.00165  20282.4

 Output coordinates in angstroms (scale by  1.889725989 to convert to a.u.)

  No.       Tag          Charge          X              Y              Z
 ---- ---------------- ---------- -------------- -------------- --------------
    1 O                    8.0000     4.76631453    -1.61054758    -3.53232109
    2 H                    1.0000    -1.92245138     5.26637880    -1.04634654
    3 H                    1.0000     4.67730636    -7.30073619     1.03558416
    4 Si                  14.0000    -2.35522117     8.29114381     1.98732288
    5 Si                  14.0000     0.45431319     7.04874158    -1.14262333
    6 Si                  14.0000     3.78198429     4.69925389    -4.35502902
    7 H                    1.0000     1.41452308    -6.02708795    -1.08196119
    8 Si                  14.0000    -3.68350818     4.50329701     0.31935252
    9 Si                  14.0000     0.35944027     2.38241973    -1.51290066
   10 Si                  14.0000     4.10570746    -0.42216592    -2.57921725
   11 H                    1.0000    -1.85434575    -3.43685939    -3.65294164
   12 Si                  14.0000    -4.26524314     0.30740507    -2.44711215
   13 Si                  14.0000    -0.50274400    -2.43497226    -1.55827033
   14 Si                  14.0000     3.53556563    -4.58764229     0.10346967
   15 H                    1.0000    -1.87980997     7.23892832    -0.43759736
   16 Si                  14.0000    -3.73449874    -4.79430091    -4.21416467
   17 Si                  14.0000    -0.76165418    -7.09384394    -1.24587098
   18 Si                  14.0000     2.91890997    -8.08835116     2.40036605
   19 O                    8.0000    -2.60589369     0.29463584    -2.75426619
   20 O                    8.0000     1.62996358     4.86953329     4.55256413
   21 O                    8.0000     5.96037513     4.50015512     1.07502595
   22 O                    8.0000    -1.24061357    -6.62165231    -2.75866469
   23 O                    8.0000     1.11364227    -2.62089113    -2.03127348
   24 O                    8.0000    -2.02727661     1.65780027     3.73626353
   25 O                    8.0000     2.71699728     1.00704050     3.02699555
   26 O                    8.0000     1.70153452    -8.15991261     1.28387186
   27 O                    8.0000     4.53469537    -5.92727416    -0.11970739
   28 O                    8.0000    -4.73949626    -2.12444632     1.63423998
   29 O                    8.0000    -0.59239977    -2.44475814     3.66787536
   30 H                    1.0000    -2.04887244     1.11373342    -2.59631043
   31 H                    1.0000    -4.09500209    -5.10000791    -6.54185599
   32 O                    8.0000     2.38934567    -4.61889075    -1.09553112
   33 O                    8.0000     1.39443633     2.11096041    -2.80776466
   34 O                    8.0000    -3.41349489     4.96047356     4.46281461
   35 O                    8.0000    -4.79346372    -1.22027884    -2.67937875
   36 Si                  14.0000    -4.89219584    -3.43775420     0.64667181
   37 Si                  14.0000    -0.66404306    -4.09437093     3.30596196
   38 O                    8.0000     1.20877698     4.47256603     1.90040593
   39 O                    8.0000     5.21959556     2.98573481    -1.05665818
   40 H                    1.0000     4.87733662    -6.21059269    -0.98345209
   41 H                    1.0000    -3.76562872     7.27382282     0.29065768
   42 Si                  14.0000    -2.40205809     5.34340119     3.21405816
   43 O                    8.0000    -4.70523092    -3.83157480    -3.29557924
   44 O                    8.0000    -1.64205108    -6.21114308    -0.11947594
   45 O                    8.0000    -2.13891530    -4.37636886    -3.85159520
   46 Si                  14.0000     1.74100041     4.62669213     0.37128805
   47 O                    8.0000    -1.20540435    -4.32177091     1.79041332
   48 H                    1.0000    -1.35578121    -5.71382415    -3.17137993
   49 H                    1.0000     4.05413572    -4.28327211     4.70198139
   50 Si                  14.0000     5.47747812     2.52065079    -2.61019297
   51 O                    8.0000    -3.40928838    -4.14352508     0.39262322
   52 O                    8.0000     0.86493409    -6.83326175    -0.86715797
   53 O                    8.0000     1.47059382     6.15718387    -0.20690648
   54 O                    8.0000     2.88420765    -4.75300996     1.59552878
   55 O                    8.0000    -6.41077718     1.30742486     0.99012475
   56 O                    8.0000     4.43067821    -7.98534485     1.70077834
   57 O                    8.0000     4.75674635     3.58630012    -3.63533892
   58 H                    1.0000    -3.69019944     9.63244175     3.46116880
   59 O                    8.0000    -1.20002076     0.54202593     1.46473027
   60 H                    1.0000     4.48354452    -1.94964476    -4.39245669
   61 H                    1.0000    -1.91021410    -1.11382020    -2.94742433
   62 O                    8.0000    -3.83174217    -6.42354205    -3.91408479
   63 O                    8.0000     3.84660472    -1.01835923     1.60339855
   64 H                    1.0000    -6.09300285    -4.86760879     2.14188294
   65 O                    8.0000    -4.56242807     3.13909807     0.29782422
   66 O                    8.0000    -1.05981423    -8.71104574    -1.09391782
   67 H                    1.0000    -1.73334373    -4.92817047     5.29345929
   68 O                    8.0000     2.85005571    -9.35935972     3.45382844
   69 H                    1.0000     7.65639793     2.19825779    -3.57944078
   70 H                    1.0000     7.17050358    -1.69498402     0.49510140
   71 H                    1.0000    -7.78457749    -3.17970143    -3.01330525
   72 H                    1.0000     1.77140836     5.78711010     4.81970457
   73 H                    1.0000     6.49922768     5.20337422     0.68988945
   74 O                    8.0000    -2.95762119     4.77794049     1.75962453
   75 O                    8.0000     0.87534214     3.71529853    -0.69142490
   76 H                    1.0000    -1.08503043     1.96243469     3.86666325
   77 H                    1.0000     3.39766580     1.60086822     2.59861474
   78 O                    8.0000     3.27471178    -4.05508987     4.17102904
   79 O                    8.0000     0.87745173    -4.65585728     3.39520167
   80 O                    8.0000    -4.18459264    -4.49407015    -5.79231063
   81 O                    8.0000    -1.15068387     6.69246937    -0.95403152
   82 H                    1.0000    -5.57301199     5.83780590    -0.28670448
   83 O                    8.0000     4.78869440     1.04943978    -2.86542985
   84 O                    8.0000     0.56266432     2.53495128     3.69530736
   85 O                    8.0000     4.63794950     2.21323631     1.52440141
   86 O                    8.0000     2.28340675     4.51891713    -3.62461125
   87 H                    1.0000    -4.02165638    -1.74529881     2.21548992
   88 O                    8.0000    -2.74879360    -0.99210989     3.03367143
   89 O                    8.0000     2.11793900    -1.64870658     3.66860841
   90 H                    1.0000     1.75424145     2.92304900    -3.27908359
   91 O                    8.0000    -0.89009682     4.76582367     3.47596436
   92 O                    8.0000    -5.99303099    -4.53357638     1.24019914
   93 O                    8.0000    -1.71963132    -4.84738909     4.33100703
   94 O                    8.0000    -4.65932345     5.86808455     0.04102954
   95 O                    8.0000     3.32384506     4.20555068     0.34487138
   96 H                    1.0000     0.29524202    -2.00614559     3.77299602
   97 O                    8.0000    -5.43292865    -3.01227468    -0.84326789
   98 O                    8.0000    -1.23256100     2.51989996    -1.98942148
   99 H                    1.0000     1.59438773    -1.84865802    -2.45659411
  100 H                    1.0000    -3.52733421     4.08049281     4.85828539
  101 O                    8.0000     7.11810009     2.48846627    -2.83166501
  102 H                    1.0000     1.45131558    -7.68029630     0.44227163
  103 O                    8.0000    -4.48013366     0.79812004    -0.89278347
  104 O                    8.0000    -5.04659854     1.39227582    -3.43566284
  105 H                    1.0000    -6.82162772     0.49170144     1.31608487
  106 Si                  14.0000    -5.51463416    -2.68661234    -2.44700904
  107 O                    8.0000    -0.54988154    -1.26390354    -0.41356678
  108 O                    8.0000     0.52435566     1.10436809    -0.51245505
  109 O                    8.0000    -3.79216743     1.06216381     1.72023763
  110 Si                  14.0000    -1.86400520    -4.64832112     0.32473309
  111 H                    1.0000     1.74941150     5.28375475    -3.25953866
  112 H                    1.0000     2.63639629    -2.42738863     4.01766782
  113 H                    1.0000     1.34449757     1.91577940     3.60100824
  114 Si                  14.0000     2.42265899    -5.10144242     3.14331526
  115 O                    8.0000    -1.00894121    -3.81472447    -0.84384334
  116 O                    8.0000    -3.38762106     9.44504570     2.56261337
  117 O                    8.0000     2.45201131    -0.35470038    -2.85187247
  118 H                    1.0000     1.90650875    -3.82925865    -1.53678629
  119 O                    8.0000     4.40751476    -3.18922382     0.11482281
  120 H                    1.0000    -5.58341650     1.22435574    -4.22257294
  121 H                    1.0000     0.48750023     7.07033728    -3.51683021
  122 Si                  14.0000    -4.83615834     1.51859527     0.53779758
  123 H                    1.0000    -1.84996774     3.24967819    -1.62849634
  124 H                    1.0000     3.52971730     3.69397471    -6.54803890
  125 O                    8.0000    -0.82790914     8.83222007     1.69654024
  126 Si                  14.0000    -0.01641382    -0.04664953     0.52377051
  127 O                    8.0000     1.22387450    -0.54619873     1.46154715
  128 O                    8.0000    -2.89734029     7.74194798     0.47040052
  129 O                    8.0000     0.61200908     8.67305701    -0.73237095
  130 Si                  14.0000     4.77239466    -1.60609634     0.37942891
  131 H                    1.0000     1.97003599     0.53047450    -2.91854618
  132 O                    8.0000    -7.08261685    -2.51611338    -2.96629012
  133 O                    8.0000    -2.50660835     4.45560557    -0.88457206
  134 O                    8.0000     0.90428463     6.66638287    -2.73566938
  135 O                    8.0000     6.34114796    -1.34865381     0.85148556
  136 O                    8.0000    -2.34863793     6.98491128     3.00802453
  137 O                    8.0000     4.29253073     6.25977661    -4.11681287
  138 O                    8.0000     3.74609905     4.45864000    -5.99863922
  139 Si                  14.0000     0.63652103     4.17726654     3.42626250
  140 Si                  14.0000    -2.45996881     0.58583535     2.54437160
  141 H                    1.0000    -0.31979270     9.00004588     0.87448890
  142 H                    1.0000     1.41187975     9.22018740    -0.79162934
  143 Si                  14.0000     4.80200651     3.50538235     0.44423863
  144 Si                  14.0000     2.51576675    -0.56741239     2.46808347
  145 H                    1.0000     4.83176538     6.81671837    -4.69520867
  146 O                    8.0000     2.72250892    -6.69411470     3.34840546
  147 O                    8.0000    -1.44020937    -2.01765332    -2.86562901
  148 H                    1.0000     5.36698408     1.59063892     1.70473480
  149 O                    8.0000     4.44393613    -0.81700236    -1.02314525
  150 H                    1.0000    -2.00940073    -1.55935661     3.41119708
  151 H                    1.0000     2.83000846   -10.30578067     3.26493401
  152 H                    1.0000    -0.79614278    -9.30382649    -0.37547734
  153 H                    1.0000    -3.13159576    -6.93898668    -3.45741198

 Total times  cpu:    17853.7s     wall:    20282.5s
