============================== echo of input deck ==============================
echo

start molecule

print low

title "Q-G ecp"
charge 0

geometry units angstroms print xyz autosym
  load format xyz Quartz-G_001.molecular_slab_smaller.xyz
end

basis
 * library lanl2dz_ecp
end

ecp
  Si library lanl2dz_ecp
end

dft
  xc b3lyp
  mult 1
  maxiter 100
end

task dft energy
================================================================================

 Output coordinates in angstroms (scale by  1.889725989 to convert to a.u.)

  No.       Tag          Charge          X              Y              Z
 ---- ---------------- ---------- -------------- -------------- --------------
    1 Si                  14.0000     1.64943033   -11.50641912    -0.17361954
    2 H                    1.0000    -0.61339442     7.80986937    -2.12424906
    3 H                    1.0000     4.55569388    -8.32562674    -2.59568105
    4 Si                  14.0000    -1.65557308    11.80504153    -1.12529181
    5 Si                  14.0000     1.96548147     8.51418492    -1.10164066
    6 Si                  14.0000     5.58729088     5.22432569    -1.07561308
    7 H                    1.0000     0.94168038    -5.03179827    -2.61100855
    8 Si                  14.0000    -2.68512887     7.02986563    -1.37861958
    9 Si                  14.0000     0.93472884     3.73800494    -1.35492380
   10 Si                  14.0000     4.55907607     0.44809325    -1.32947579
   11 H                    1.0000    -2.67970150    -1.74858735    -2.63801075
   12 Si                  14.0000    -3.72147667     2.25433673    -1.63394210
   13 Si                  14.0000    -0.09766301    -1.03633659    -1.60836961
   14 Si                  14.0000     3.52749388    -4.32905052    -1.58343618
   15 H                    1.0000     0.50524527     9.88662769    -2.10741431
   16 Si                  14.0000    -4.75160395    -2.52528814    -1.88831439
   17 Si                  14.0000    -1.12897353    -5.81391132    -1.86343803
   18 Si                  14.0000     2.48762071    -9.10580085    -1.83858241
   19 O                    8.0000    -2.20407811     2.22492684    -2.25433067
   20 O                    8.0000     0.82905524     8.63927271     3.01740087
   21 O                    8.0000     4.45158853     5.34871299     3.04186238
   22 O                    8.0000    -2.29831761    -5.38071734    -2.96293939
   23 O                    8.0000     1.41945573    -1.06587741    -2.22922257
   24 O                    8.0000    -0.20352450     3.86370521     2.76379483
   25 O                    8.0000     3.41953505     0.57246004     2.78867517
   26 O                    8.0000     1.31481759    -8.67325657    -2.93472545
   27 O                    8.0000     5.04669650    -4.36079407    -2.19912444
   28 O                    8.0000    -1.23650028    -0.91279449     2.50825549
   29 O                    8.0000     2.38628992    -4.20467663     2.53280298
   30 H                    1.0000    -1.65442425     3.03799865    -2.38881327
   31 H                    1.0000    -6.20696969    -1.15259482    -2.90149040
   32 O                    8.0000    -2.26959499    -5.68847545     2.25469843
   33 O                    8.0000     1.35235289    -8.97863947     2.27945133
   34 O                    8.0000    -3.78513283    10.19868710     1.14573058
   35 Si                  14.0000     0.00820277    -9.63602283     1.62261817
   36 Si                  14.0000    -2.57984593    -1.57026939     1.84994246
   37 Si                  14.0000     1.04221125    -4.86123503     1.87512977
   38 O                    8.0000    -0.16208138     6.90887131     1.16930739
   39 O                    8.0000     3.46016372     3.61818683     1.19396994
   40 H                    1.0000     5.59958896    -3.54927945    -2.32934986
   41 H                    1.0000    -0.08169087    12.20318662    -2.80042621
   42 Si                  14.0000    -2.49519251     9.40352016     0.53790369
   43 O                    8.0000    -4.99819259    -1.61876998    -0.53673068
   44 O                    8.0000    -1.37494403    -4.90816998    -0.51141170
   45 O                    8.0000    -3.23274254    -2.55957381    -2.50462226
   46 Si                  14.0000     1.12736558     6.11250785     0.56202443
   47 O                    8.0000     1.21096486   -12.97613971    -0.73741283
   48 H                    1.0000    -3.77410760    -7.50432864     3.40896315
   49 H                    1.0000    -0.15082057   -10.79403764     3.43538073
   50 Si                  14.0000     4.75013961     2.82222298     0.58731630
   51 O                    8.0000    -2.22713870    -2.64290189     0.65953647
   52 O                    8.0000     0.38953838    -5.84385001    -2.48111794
   53 O                    8.0000     1.74503882     6.93106772    -0.71755242
   54 O                    8.0000     3.30684122    -5.91188652    -1.19869748
   55 O                    8.0000    -4.81678018     5.42364730     0.89058061
   56 O                    8.0000     4.00391879    -9.13726686    -2.46108400
   57 O                    8.0000     5.36775730     3.64093709    -0.69240666
   58 H                    1.0000    -3.11261547    13.18001330    -2.13219635
   59 O                    8.0000    -1.19351890     2.13359147     0.91483290
   60 H                    1.0000     6.63027782     1.22862911    -2.07857602
   61 H                    1.0000    -1.55662976     0.33769400    -2.61317202
   62 O                    8.0000    -4.97531466    -4.10786733    -1.50431659
   63 O                    8.0000     2.42865960    -1.15623418     0.93846263
   64 H                    1.0000    -2.74104681    -2.72917716     3.66196343
   65 O                    8.0000    -2.90787841     5.44673197    -0.99587289
   66 O                    8.0000    -1.34873407    -7.39685255    -1.47824594
   67 H                    1.0000     0.88238335    -6.02064783     3.68687418
   68 O                    8.0000     2.26854052   -10.68868188    -1.45308984
   69 H                    1.0000    -6.21484574    -6.97976933    -0.04772113
   70 Si                  14.0000    -3.61312511    -6.34568885     1.59669873
   71 H                    1.0000    -5.77878372     0.68802946     1.59123708
   72 H                    1.0000    -2.59225339   -10.26950490    -0.02532878
   73 H                    1.0000     1.02883759   -13.56110596     0.00167048
   74 O                    8.0000    -2.93299511     7.93357785    -0.02561416
   75 O                    8.0000     0.68968195     4.64256636    -0.00188820
   76 O                    8.0000     2.76277020   -11.68895911     1.01844460
   77 O                    8.0000    -6.88318663    -4.12769713     0.38250101
   78 O                    8.0000     3.79554772    -6.91418254     1.27213439
   79 O                    8.0000     1.39422469    -5.93309251     0.68358307
   80 O                    8.0000    -5.91915492    -2.09145055    -2.98970756
   81 O                    8.0000     0.79475406     8.94840127    -2.19935995
   82 H                    1.0000    -4.13924675     8.40442205    -2.39089845
   83 O                    8.0000     4.31254632     1.35245859     0.02338911
   84 O                    8.0000    -1.30981995     7.17414807     3.54108582
   85 O                    8.0000     2.31374905     3.88303378     3.56662865
   86 O                    8.0000     4.41666622     5.65941066    -2.17289709
   87 O                    8.0000    -3.26042891    -7.41794964     0.40594234
   88 O                    8.0000    -2.34239709     2.39781206     3.28612747
   89 O                    8.0000     1.28109919    -0.89375068     3.31117326
   90 H                    1.0000     3.00358487     4.52049740    -2.10739951
   91 O                    8.0000    -1.37960664     9.22107199     1.72800130
   92 O                    8.0000    -3.37485196    -2.37922332     3.03154821
   93 O                    8.0000     0.24811806    -5.67057970     3.05698542
   94 O                    8.0000    -3.85051396     7.46601180    -2.48123186
   95 O                    8.0000     2.24124052     5.92947705     1.75377949
   96 O                    8.0000    -4.40800151    -7.15441720     2.77861365
   97 O                    8.0000    -0.78539524   -10.44418317     2.80568490
   98 O                    8.0000    -0.23660090     4.16906704    -2.45331791
   99 Si                  14.0000    -5.59395636    -4.92512525    -0.22412397
  100 O                    8.0000     0.35995185   -10.70941236     0.43249193
  101 O                    8.0000     5.86382483     2.64010110     1.77930882
  102 H                    1.0000     1.02614781    -7.73473548    -2.84457866
  103 O                    8.0000    -3.96570298     3.15849608    -0.28059316
  104 O                    8.0000    -4.89242292     2.68925773    -2.73116117
  105 O                    8.0000    -0.85835556    -8.39819957     0.99230638
  106 Si                  14.0000    -4.55978767    -0.14921886     0.02746257
  107 O                    8.0000    -0.34100130    -0.13244850    -0.25472519
  108 O                    8.0000     0.71700944     2.15488484    -0.96990537
  109 O                    8.0000    -2.41233145     4.44498180     1.47401058
  110 Si                  14.0000    -0.93699059    -3.43899733     0.05326339
  111 H                    1.0000     4.12690062     6.59752540    -2.08044594
  112 O                    8.0000    -6.03275413    -6.39521198    -0.78713667
  113 O                    8.0000    -2.41000912    -9.68454049    -0.76438471
  114 Si                  14.0000     2.68406317    -6.73053101     0.07844195
  115 O                    8.0000    -0.31578390    -2.61966279    -1.22418624
  116 O                    8.0000    -2.82294938    12.24180857    -2.22527049
  117 O                    8.0000     3.39035860     0.88151121    -2.42959874
  118 H                    1.0000     2.07133847    -2.95709920    -2.59543744
  119 O                    8.0000     3.28053281    -3.42266069    -0.23202575
  120 H                    1.0000    -5.18198199     3.62725118    -2.63918003
  121 H                    1.0000     3.53517914     8.91418530    -2.78025584
  122 Si                  14.0000    -3.52692832     4.62799652     0.28323308
  123 H                    1.0000    -0.52619940     5.10738860    -2.36363031
  124 H                    1.0000     7.15683390     5.62559589    -2.75406979
  125 O                    8.0000    -1.80703708    12.83416842     0.38031654
  126 Si                  14.0000     0.09667821     1.33719550     0.30902406
  127 O                    8.0000     1.20989256     1.15436127     1.50110561
  128 O                    8.0000     0.00478380    12.03774962    -1.85875071
  129 O                    8.0000     1.81633477     9.54395894     0.40375655
  130 Si                  14.0000     3.71842955    -1.95339850     0.33271530
  131 H                    1.0000     3.10147021     1.81996975    -2.33987395
  132 O                    8.0000    -5.84962574     0.64658351     0.63475203
  133 O                    8.0000    -1.16503759     6.99784616    -1.99238879
  134 O                    8.0000     3.62397669     8.74814916    -1.83890203
  135 O                    8.0000     4.83042712    -2.13663119     1.52593748
  136 O                    8.0000    -1.87772495    10.22190911    -0.74194600
  137 O                    8.0000     5.43786760     6.25293332     0.43055393
  138 O                    8.0000     7.24568695     5.45936459    -1.81275566
  139 Si                  14.0000    -0.51457292     7.98226762     2.35918863
  140 Si                  14.0000    -1.54674493     3.20654429     2.10493409
  141 H                    1.0000    -0.97803481    12.81739023     0.86412821
  142 H                    1.0000     2.64604234     9.52729121     0.88636150
  143 Si                  14.0000     3.10784315     4.69144237     2.38408272
  144 Si                  14.0000     2.07619730    -0.08452026     2.13000027
  145 H                    1.0000     6.26755354     6.23606141     0.91318897
  146 O                    8.0000     2.24503050    -8.19952523    -0.48623850
  147 O                    8.0000    -1.26905778    -0.60109198    -2.70488881
  148 Si                  14.0000    -1.97095606    -8.21492077    -0.20048468
  149 O                    8.0000     4.33989220    -1.13512300    -0.94552500
  150 O                    8.0000    -4.47946053    -5.10719219     0.96682096
  151 O                    8.0000     2.36004774    -3.89566112    -2.68487677
  152 O                    8.0000     2.45195653     3.70846971    -1.97556016
  153 H                    1.0000    -2.58717933    -4.44229875    -2.87244241
  154 O                    8.0000    -3.44608208    -0.33212478     1.21915391
  155 H                    1.0000     1.97131175    -0.25383700    -2.36020291
  156 O                    8.0000     6.07759947     0.41743443    -1.94711837
  157 O                    8.0000    -3.94187704     0.67089574    -1.25121774
  158 O                    8.0000     0.17577292    -3.62262144     1.24579950
  159 H                    1.0000     3.62840536   -11.83172298     0.62870847
  160 H                    1.0000     4.66166553    -7.05739544     0.88363728
  161 H                    1.0000     6.72941850     2.49744661     1.38944050
  162 H                    1.0000     5.69641505    -2.27969877     1.13709744
  163 H                    1.0000     1.50836873     8.72059388     2.34396191
  164 H                    1.0000     5.13067037     5.43014502     2.36820320
  165 H                    1.0000     0.47616557     3.94494656     2.09072630
  166 H                    1.0000     4.09912172     0.65370299     2.11550243
  167 H                    1.0000    -0.55709778    -0.83141630     1.83491322
  168 H                    1.0000     3.06527786    -4.12333864     1.85903780
  169 H                    1.0000    -1.59036559    -5.60708786     1.58118267
  170 H                    1.0000     2.03091258    -8.89703799     1.60528669
  171 H                    1.0000    -3.71402648    10.23995513     2.10220371
  172 H                    1.0000    -4.74591098     5.46506044     1.84706506
  173 H                    1.0000    -6.81253743    -4.08587629     1.33898400
  174 H                    1.0000    -0.67614529     6.82435726     4.17172265
  175 H                    1.0000     2.94804817     3.53314873     4.19658506
  176 H                    1.0000    -1.70895834     2.04791765     3.91694381
  177 H                    1.0000     1.91481184    -1.24376444     3.94164818

         Total DFT energy =    -7006.709688373387
 Total times  cpu:       76.6s     wall:       90.6s
