 Output coordinates in a.u. (scale by  1.000000000 to convert to a.u.)

  No.       Tag          Charge          X              Y              Z
 ---- ---------------- ---------- -------------- -------------- --------------
    1 N                    7.0000    -0.62956930    -0.24649445     0.00000000
    2 H                    1.0000     2.50151071     0.49066975     0.00000000
    3 H                    1.0000     0.47585457     4.94071780     0.00000000
    4 H                    1.0000     1.42961981    -3.70592640     0.00000000

         Total DFT energy =      -55.977228036103

 Vector    1  Occ=2.000000D+00  E=-1.453105D+01  Symmetry=a'

 Vector    2  Occ=2.000000D+00  E=-7.808244D-01  Symmetry=a'

 Vector    3  Occ=2.000000D+00  E=-3.830836D-01  Symmetry=a'

 Vector    4  Occ=2.000000D+00  E=-3.344775D-01  Symmetry=a'

 Vector    5  Occ=2.000000D+00  E=-2.140072D-01  Symmetry=a'

 Vector    6  Occ=0.000000D+00  E=-2.411599D-01  Symmetry=a"

 Vector    7  Occ=0.000000D+00  E=-1.648524D-01  Symmetry=a'

 Vector    8  Occ=0.000000D+00  E=-1.242437D-01  Symmetry=a'

 Vector    9  Occ=0.000000D+00  E= 6.218770D-01  Symmetry=a'

 Vector   10  Occ=0.000000D+00  E= 6.226919D-01  Symmetry=a"

 Vector   11  Occ=0.000000D+00  E= 6.636879D-01  Symmetry=a'

 Vector   12  Occ=0.000000D+00  E= 7.636426D-01  Symmetry=a'

 Vector   13  Occ=0.000000D+00  E= 8.000787D-01  Symmetry=a'

 Vector   14  Occ=0.000000D+00  E= 8.329939D-01  Symmetry=a'

 Vector   15  Occ=0.000000D+00  E= 9.318260D-01  Symmetry=a'

         Total DFT energy =      -55.882786568130

                       DFT Final Molecular Orbital Analysis
                       ------------------------------------

 Vector    1  Occ=2.000000D+00  E=-1.459589D+01  Symmetry=a'

 Vector    2  Occ=2.000000D+00  E=-8.011254D-01  Symmetry=a'

 Vector    3  Occ=2.000000D+00  E=-3.917228D-01  Symmetry=a'

 Vector    4  Occ=2.000000D+00  E=-3.426740D-01  Symmetry=a'

 Vector    5  Occ=2.000000D+00  E=-2.154648D-01  Symmetry=a'

 Vector    6  Occ=0.000000D+00  E=-2.293060D-01  Symmetry=a"

 Vector    7  Occ=0.000000D+00  E=-1.581310D-01  Symmetry=a'

 Vector    8  Occ=0.000000D+00  E=-1.137149D-01  Symmetry=a'

 Vector    9  Occ=0.000000D+00  E= 6.450557D-01  Symmetry=a"

 Vector   10  Occ=0.000000D+00  E= 6.455487D-01  Symmetry=a'

 Vector   11  Occ=0.000000D+00  E= 6.861202D-01  Symmetry=a'

 Vector   12  Occ=0.000000D+00  E= 7.855174D-01  Symmetry=a'

 Vector   13  Occ=0.000000D+00  E= 8.229525D-01  Symmetry=a'

 Vector   14  Occ=0.000000D+00  E= 8.576415D-01  Symmetry=a'

 Vector   15  Occ=0.000000D+00  E= 9.554310D-01  Symmetry=a'

     Multipole analysis of the density
     ---------------------------------

     L   x y z        total         alpha         beta         nuclear
     -   - - -        -----         -----         ----         -------
     0   0 0 0     -0.000000     -5.000000     -5.000000     10.000000

     1   1 0 0      0.326435      0.163217      0.163217     -0.000000
     1   0 1 0     -0.482042     -0.241021     -0.241021      0.000000
     1   0 0 1      0.000000      0.000000      0.000000      0.000000

     2   2 0 0     -6.512757     -8.907533     -8.907533     11.302309
     2   1 1 0      0.083631      0.358460      0.358460     -0.633290
     2   1 0 1      0.000000      0.000000      0.000000      0.000000
     2   0 2 0    -11.368869    -25.089763    -25.089763     38.810656
     2   0 1 1      0.000000      0.000000      0.000000      0.000000

 Total times  cpu:        1.6s     wall:        1.9s
