============================== echo of input deck ==============================
echo

start molecule

# https://nwchemgit.github.io/Memory.html
memory total 40 gb

print low

title "H3PO4"
charge 0

geometry units angstroms print xyz autosym
  load format xyz h3po4_startgeom.xyz
end

basis
  * library 6-311++G(2d,2p)
end

dft
  #grid fine
  grid huge
  xc b3lyp
  mult 1
# Reduce output during geometry optimization
  noprint "final vectors analysis"
  print low
end

driver
#  clear
  tight
#  linopt 0
  maxiter 9999
  xyz h3po4_geom
  print low
end

property
  giao
  shielding
end

cosmo
  solvent chcl3
end

task dft optimize
task dft freq
task dft property

================================================================================

         Total DFT energy =     -644.340835744479
@ Step       Energy      Delta E   Gmax     Grms     Xrms     Xmax   Walltime
@ ---- ---------------- -------- -------- -------- -------- -------- --------
@    0    -644.34083574  0.0D+00  0.00283  0.00133  0.00000  0.00000     57.5
         Total DFT energy =     -644.340946977497
         Total DFT energy =     -644.340949459633
@    1    -644.34094946 -1.1D-04  0.00146  0.00068  0.00886  0.02052    152.6
         Total DFT energy =     -644.340924249074
         Total DFT energy =     -644.340964527500
@    2    -644.34096453 -1.5D-05  0.00087  0.00042  0.00483  0.00843    248.0
         Total DFT energy =     -644.340942165528
         Total DFT energy =     -644.340965317406
@    3    -644.34096532 -7.9D-07  0.00048  0.00025  0.00267  0.00492    343.7
         Total DFT energy =     -644.340973429225
         Total DFT energy =     -644.340977154965
@    4    -644.34097715 -1.2D-05  0.00024  0.00014  0.00348  0.00687    438.1
         Total DFT energy =     -644.341018478349
         Total DFT energy =   -644.341018478349
@    5    -644.34101848 -4.1D-05  0.00071  0.00038  0.00848  0.01609    491.3
         Total DFT energy =     -644.341080379284
         Total DFT energy =   -644.341080379284
@    6    -644.34108038 -6.2D-05  0.00147  0.00075  0.01585  0.02934    543.5
         Total DFT energy =     -644.341129065337
         Total DFT energy =     -644.341130422845
@    7    -644.34113042 -5.0D-05  0.00186  0.00092  0.01290  0.02315    640.3
         Total DFT energy =     -644.341713244595
         Total DFT energy =     -644.339231166228
@    8    -644.33923117  1.9D-03  0.00951  0.00362  0.08728  0.16384    735.4
         Total DFT energy =     -644.341008031832
         Total DFT energy =     -644.341392086666
@    9    -644.34139209 -2.2D-03  0.00529  0.00196  0.02970  0.06223    830.8
         Total DFT energy =     -644.341858219858
         Total DFT energy =     -644.341922290139
@   10    -644.34192229 -5.3D-04  0.00223  0.00093  0.02136  0.03953    925.7
         Total DFT energy =     -644.341820760799
         Total DFT energy =     -644.341930976961
@   11    -644.34193098 -8.7D-06  0.00124  0.00061  0.00694  0.01307   1021.4
         Total DFT energy =     -644.341826391630
         Total DFT energy =     -644.341907917550
@   12    -644.34190792  2.3D-05  0.00075  0.00048  0.00367  0.00709   1116.4
         Total DFT energy =     -644.341876184509
         Total DFT energy =     -644.341897253672
@   13    -644.34189725  1.1D-05  0.00067  0.00044  0.00141  0.00278   1212.2
         Total DFT energy =     -644.341883692930
         Total DFT energy =     -644.341892192243
@   14    -644.34189219  5.1D-06  0.00067  0.00043  0.00067  0.00133   1306.9
         Total DFT energy =     -644.341884641504
         Total DFT energy =     -644.341889273201
@   15    -644.34188927  2.9D-06  0.00066  0.00042  0.00039  0.00079   1402.0
         Total DFT energy =     -644.341847602675
         Total DFT energy =     -644.341875208630
@   16    -644.34187521  1.4D-05  0.00065  0.00040  0.00172  0.00349   1497.7
         Total DFT energy =     -644.341856521017
         Total DFT energy =     -644.341868149705
@   17    -644.34186815  7.1D-06  0.00064  0.00039  0.00122  0.00245   1594.1
         Total DFT energy =     -644.341859207932
         Total DFT energy =     -644.341864562233
@   18    -644.34186456  3.6D-06  0.00064  0.00038  0.00061  0.00122   1689.1
         Total DFT energy =     -644.341838562409
         Total DFT energy =     -644.341854844520
@   19    -644.34185484  9.7D-06  0.00063  0.00038  0.00169  0.00335   1784.1
         Total DFT energy =     -644.341843564660
         Total DFT energy =     -644.341850235350
@   20    -644.34185024  4.6D-06  0.00063  0.00038  0.00128  0.00241   1878.3
         Total DFT energy =     -644.341706923419
         Total DFT energy =     -644.341815999737
@   21    -644.34181600  3.4D-05  0.00062  0.00037  0.00221  0.00434   1974.3
         Total DFT energy =     -644.341839806468
         Total DFT energy =     -644.341833052740
@   22    -644.34183305 -1.7D-05  0.00062  0.00038  0.00237  0.00458   2069.0
         Total DFT energy =     -644.341888356503
         Total DFT energy =     -644.341879459453
@   23    -644.34187946 -4.6D-05  0.00067  0.00041  0.01117  0.02070   2164.5
         Total DFT energy =     -644.341852966286
         Total DFT energy =     -644.341884700871
@   24    -644.34188470 -5.2D-06  0.00069  0.00047  0.01035  0.01856   2260.1
         Total DFT energy =     -644.341775165058
         Total DFT energy =     -644.341850976468
@   25    -644.34185098  3.4D-05  0.00073  0.00050  0.00845  0.01397   2357.5
         Total DFT energy =     -644.341712396834
         Total DFT energy =     -644.341809516113
@   26    -644.34180952  4.1D-05  0.00180  0.00056  0.00359  0.00738   2453.8
         Total DFT energy =     -644.341769059599
         Total DFT energy =     -644.341794315469
@   27    -644.34179432  1.5D-05  0.00158  0.00053  0.00188  0.00338   2551.5
         Total DFT energy =     -644.341705033866
         Total DFT energy =     -644.341770268850
@   28    -644.34177027  2.4D-05  0.00149  0.00050  0.00141  0.00275   2647.9
         Total DFT energy =     -644.341744580080
         Total DFT energy =     -644.341760684492
@   29    -644.34176068  9.6D-06  0.00138  0.00049  0.00109  0.00194   2744.7
         Total DFT energy =     -644.341719727756
         Total DFT energy =     -644.341747044027
@   30    -644.34174704  1.4D-05  0.00125  0.00047  0.00093  0.00193   2843.4
         Total DFT energy =     -644.341717116909
         Total DFT energy =     -644.341736124544
@   31    -644.34173612  1.1D-05  0.00120  0.00046  0.00103  0.00191   2939.2
         Total DFT energy =     -644.341700610158
         Total DFT energy =     -644.341723806040
@   32    -644.34172381  1.2D-05  0.00112  0.00045  0.00096  0.00190   3034.8
@  344    -644.33856064  8.6D-07  0.00001  0.00001  0.00008  0.00019  32950.1
         Total DFT energy =     -644.338535225387
         Total DFT energy =     -644.338559836481
@  345    -644.33855984  8.0D-07  0.00001  0.00001  0.00008  0.00017  33044.2
         Total DFT energy =     -644.338535225121
         Total DFT energy =     -644.338559084928
@  346    -644.33855908  7.5D-07  0.00001  0.00001  0.00007  0.00016  33139.4
         Total DFT energy =     -644.338535228287
         Total DFT energy =     -644.338558376468
@  347    -644.33855838  7.1D-07  0.00001  0.00001  0.00007  0.00016  33236.0
         Total DFT energy =     -644.338535133287
         Total DFT energy =     -644.338557711197
@  348    -644.33855771  6.7D-07  0.00001  0.00001  0.00006  0.00015  33333.3
         Total DFT energy =     -644.338535235372
         Total DFT energy =     -644.338557079256
@  349    -644.33855708  6.3D-07  0.00001  0.00001  0.00006  0.00014  33429.2
         Total DFT energy =     -644.338535240361
         Total DFT energy =     -644.338556481364
@  350    -644.33855648  6.0D-07  0.00001  0.00001  0.00006  0.00013  33527.1
         Total DFT energy =     -644.338535243644
         Total DFT energy =     -644.338555914686
@  351    -644.33855591  5.7D-07  0.00001  0.00001  0.00005  0.00012  33622.6
         Total DFT energy =     -644.338535253362
         Total DFT energy =     -644.338555384886
@  352    -644.33855538  5.3D-07  0.00001  0.00001  0.00005  0.00012  33719.3
         Total DFT energy =     -644.338535260795
         Total DFT energy =     -644.338554866452
@  353    -644.33855487  5.2D-07  0.00001  0.00001  0.00005  0.00011  33814.6
         Total DFT energy =     -644.338535271864
         Total DFT energy =     -644.338554381134
@  354    -644.33855438  4.9D-07  0.00001  0.00001  0.00005  0.00011  33911.6
         Total DFT energy =     -644.338535280473
         Total DFT energy =     -644.338553918979
@  355    -644.33855392  4.6D-07  0.00001  0.00001  0.00004  0.00010  34007.9
         Total DFT energy =     -644.338535284385
         Total DFT energy =     -644.338553381019
@  356    -644.33855338  5.4D-07  0.00001  0.00001  0.00004  0.00010  34101.8
         Total DFT energy =     -644.338535288276
         Total DFT energy =     -644.338553055933
@  357    -644.33855306  3.3D-07  0.00001  0.00001  0.00004  0.00009  34199.2
         Total DFT energy =     -644.338535288173
         Total DFT energy =     -644.338552654227
@  358    -644.33855265  4.0D-07  0.00001  0.00001  0.00004  0.00009  34294.1
         Total DFT energy =     -644.338535291462
         Total DFT energy =     -644.338552270090
@  359    -644.33855227  3.8D-07  0.00001  0.00001  0.00004  0.00009  34390.4
         Total DFT energy =     -644.338535294600
         Total DFT energy =     -644.338551902406
@  360    -644.33855190  3.7D-07  0.00001  0.00000  0.00004  0.00008  34487.6
         Total DFT energy =     -644.338535298626
         Total DFT energy =     -644.338551549975
@  361    -644.33855155  3.5D-07  0.00001  0.00000  0.00003  0.00008  34583.3
         Total DFT energy =     -644.338535299074
         Total DFT energy =     -644.338551212048
@  362    -644.33855121  3.4D-07  0.00001  0.00000  0.00003  0.00008  34680.8
         Total DFT energy =     -644.338535295856
         Total DFT energy =     -644.338550888004
@  363    -644.33855089  3.2D-07  0.00001  0.00000  0.00003  0.00007  34777.1
         Total DFT energy =     -644.338535296039
         Total DFT energy =     -644.338550576393
@  364    -644.33855058  3.1D-07  0.00001  0.00000  0.00003  0.00007  34872.6
         Total DFT energy =     -644.338535301126
         Total DFT energy =     -644.338550277227
@  365    -644.33855028  3.0D-07  0.00001  0.00000  0.00003  0.00007  34969.7
         Total DFT energy =     -644.338535300102
         Total DFT energy =     -644.338549989148
@  366    -644.33854999  2.9D-07  0.00001  0.00000  0.00003  0.00006  35065.3
         Total DFT energy =     -644.338535301577
         Total DFT energy =     -644.338549711814
@  367    -644.33854971  2.8D-07  0.00001  0.00000  0.00003  0.00006  35161.3
         Total DFT energy =     -644.338535304292
         Total DFT energy =     -644.338549444516
@  368    -644.33854944  2.7D-07  0.00001  0.00000  0.00003  0.00006  35260.2
@  368    -644.33854944  2.7D-07  0.00001  0.00000  0.00003  0.00006  35260.2

 Output coordinates in angstroms (scale by  1.889725989 to convert to a.u.)

  No.       Tag          Charge          X              Y              Z
 ---- ---------------- ---------- -------------- -------------- --------------
    1 P                   15.0000     0.00000000     0.00000000     0.04075433
    2 O                    8.0000    -0.29696120     1.37741696    -0.69148921
    3 O                    8.0000     1.34135868    -0.43153254    -0.69148921
    4 O                    8.0000    -1.04439748    -0.94588442    -0.69148921
    5 O                    8.0000     0.00000000    -0.00000000     1.51226319
    6 H                    1.0000    -0.54286082     2.10436089    -0.10280693
    7 H                    1.0000     2.09386040    -0.58204918    -0.10280693
    8 H                    1.0000    -1.55099958    -1.52231170    -0.10280693

         Total DFT energy =     -644.338549444470
         Total DFT energy =     -644.338526465219
         Total DFT energy =     -644.338526144030
         Total DFT energy =     -644.338526016341
         Total DFT energy =     -644.338526592058
         Total DFT energy =     -644.338457969909
         Total DFT energy =     -644.338557753028
         Total DFT energy =     -644.338468412469
         Total DFT energy =     -644.338603619876
         Total DFT energy =     -644.338486993071
         Total DFT energy =     -644.338583616594
         Total DFT energy =     -644.338560374582
         Total DFT energy =     -644.338512231641
         Total DFT energy =     -644.338552283738
         Total DFT energy =     -644.338546917363
         Total DFT energy =     -644.338552363138
         Total DFT energy =     -644.338546836703
         Total DFT energy =     -644.338528809061
         Total DFT energy =     -644.338512588675
         Total DFT energy =     -644.338566868686
         Total DFT energy =     -644.338521092305
         Total DFT energy =     -644.338559169253
         Total DFT energy =     -644.338525087321
         Total DFT energy =     -644.338532474473
         Total DFT energy =     -644.338551196398
 Zero-Point correction to Energy  =   29.162 kcal/mol  (  0.046472 au)
 Thermal correction to Energy     =   32.072 kcal/mol  (  0.051110 au)
 Thermal correction to Enthalpy   =   32.664 kcal/mol  (  0.052054 au)
 Total Entropy                    =   68.592 cal/mol-K
   - Translational                =   39.639 cal/mol-K (mol. weight =  97.9769)
   - Rotational                   =   23.477 cal/mol-K (symmetry #  =        3)
   - Vibrational                  =    5.475 cal/mol-K
   - Translational                  =    2.979 cal/mol-K
   - Rotational                     =    2.979 cal/mol-K
   - Vibrational                    =   10.034 cal/mol-K
 P.Frequency     -308.57      -44.21      -44.21        0.00        0.00        0.00
 P.Frequency        0.00        0.00        0.00      352.52      352.52      431.96
 P.Frequency      452.88      452.88      841.48      879.35      879.35     1043.92
 P.Frequency     1043.92     1055.89     1270.30     3782.33     3782.33     3787.06

 Normal Eigenvalue ||           Projected Infra Red Intensities
  Mode   [cm**-1]  || [atomic units] [(debye/angs)**2] [(KM/mol)] [arbitrary]
 ------ ---------- || -------------- ----------------- ---------- -----------
    1     -308.569 ||    0.007304           0.169         7.120       0.511
    2      -44.214 ||    0.183017           4.222       178.414      12.813
    3      -44.214 ||    0.183017           4.222       178.414      12.813
    4        0.000 ||    0.000005           0.000         0.005       0.000
    5        0.000 ||    0.000066           0.002         0.065       0.005
    6        0.000 ||    0.000017           0.000         0.017       0.001
    7        0.000 ||    0.000009           0.000         0.009       0.001
    8        0.000 ||    0.000080           0.002         0.078       0.006
    9        0.000 ||    0.000020           0.000         0.019       0.001
   10      352.523 ||    0.154389           3.562       150.506      10.809
   11      352.523 ||    0.154389           3.562       150.506      10.809
   12      431.960 ||    0.000063           0.001         0.062       0.004
   13      452.876 ||    0.047402           1.094        46.210       3.319
   14      452.876 ||    0.047402           1.094        46.210       3.319
   15      841.475 ||    0.044310           1.022        43.195       3.102
   16      879.348 ||    0.547753          12.637       533.976      38.349
   17      879.348 ||    0.547753          12.637       533.976      38.349
   18     1043.920 ||    0.002163           0.050         2.109       0.151
   19     1043.920 ||    0.002163           0.050         2.109       0.151
   20     1055.888 ||    0.209038           4.823       203.780      14.635
   21     1270.295 ||    0.535678          12.359       522.205      37.503
   22     3782.333 ||    0.338424           7.808       329.912      23.693
   23     3782.333 ||    0.338424           7.808       329.912      23.693
   24     3787.064 ||    0.085137           1.964        82.995       5.961
 ----------------------------------------------------------------------------

         Total DFT energy =     -644.338552306074
      Atom:    1  P
           isotropic =     288.9579
      Atom:    2  O
           isotropic =     225.6891
      Atom:    3  O
           isotropic =     225.8100
      Atom:    4  O
           isotropic =     225.9230
      Atom:    5  O
           isotropic =     200.0738
      Atom:    6  H
           isotropic =      27.1265
      Atom:    7  H
           isotropic =      27.1272
      Atom:    8  H
           isotropic =      27.0946
 Total times  cpu:    38763.4s     wall:    39031.3s
