                         Program Version 5.0.2 -  RELEASE  -
|  1> !PAL8
|  2> ! CCSD(T) aug-cc-pVDZ RI aug-cc-pVDZ/C RIJDX
|  3> * xyz 0 1
|  4> C 0.0 0.0 0.0
|  5> O 0.0 0.0 1.128
|  6> *
|  7>
|  8>
|  9>
| 10>                          ****END OF INPUT****

CARTESIAN COORDINATES (ANGSTROEM)
---------------------------------
  C      0.000000    0.000000    0.000000
  O      0.000000    0.000000    1.128000

 Total Charge           Charge          ....    0
 Multiplicity           Mult            ....    1
 Number of Electrons    NEL             ....   14
 Basis Dimension        Dim             ....   46

ORBITAL ENERGIES
----------------

  NO   OCC          E(Eh)            E(eV)
   0   2.0000     -20.678578      -562.6927
   1   2.0000     -11.373634      -309.4923
   2   2.0000      -1.530197       -41.6388
   3   2.0000      -0.808403       -21.9978
   4   2.0000      -0.641161       -17.4469
   5   2.0000      -0.641161       -17.4469
   6   2.0000      -0.554637       -15.0925
   7   0.0000       0.079190         2.1549
   8   0.0000       0.079190         2.1549
   9   0.0000       0.081474         2.2170
  10   0.0000       0.105661         2.8752
  11   0.0000       0.171082         4.6554

E(0)                                       ...   -112.754762575
E(0)                                       ...   -112.754762575
E(CORR)                                    ...     -0.306235627
E(TOT)                                     ...   -113.060998201
E(CCSD(T))                                 ...   -113.073291336

MULLIKEN ATOMIC CHARGES
-----------------------
   0 C :    0.083272
   1 O :   -0.083272
Sum of atomic charges:   -0.0000000

LOEWDIN ATOMIC CHARGES
----------------------
   0 C :    0.025814
   1 O :   -0.025814

  Mayer bond orders larger than 0.100000
B(  0-C ,  1-O ) :   2.3130

FINAL SINGLE POINT ENERGY      -113.073291335881

DIPOLE MOMENT
-------------
                                X             Y             Z
Electronic contribution:      0.00000       0.00000       0.11715
Nuclear contribution   :      0.00000       0.00000       0.00715
                        -----------------------------------------
Total Dipole Moment    :      0.00000       0.00000       0.12431
                        -----------------------------------------
Magnitude (a.u.)       :      0.12431
Magnitude (Debye)      :      0.31596

Rotational constants in cm-1:     0.000000     1.931167     1.931167
Rotational constants in MHz :     0.000000 57894.926659 57894.926659

                             ****ORCA TERMINATED NORMALLY****
TOTAL RUN TIME: 0 days 0 hours 0 minutes 2 seconds 161 msec
