============================== echo of input deck ==============================
echo

start molecule

memory total 180 gb

print low

title "OsO4@Quartz ecp"
charge 0

geometry units angstroms print xyz autosym
  load format xyz OsO4_Q.geometry.xyz
end

basis
 * library crenbl_ecp
end

ecp
  Si library crenbl_ecp
  Os library crenbl_ecp
end

dft
  xc revpbe cpbe96
  maxiter 500
end

driver
  maxiter 999
  xyz OsO4Qgeomconv
end

task dft optimize

#task dft frequencies

================================================================================

         Total DFT energy =    -5283.115357977618
@ Step       Energy      Delta E   Gmax     Grms     Xrms     Xmax   Walltime
@ ---- ---------------- -------- -------- -------- -------- -------- --------
@    0   -5283.11535798  0.0D+00  0.00184  0.00028  0.00000  0.00000    407.6
         Total DFT energy =    -5283.108877650298
         Total DFT energy =    -5283.115460218927
@    1   -5283.11546022 -1.0D-04  0.00190  0.00025  0.01114  0.07138    865.1
         Total DFT energy =    -5283.112228714304
         Total DFT energy =    -5283.115536196430
@    2   -5283.11553620 -7.6D-05  0.00121  0.00016  0.00707  0.03121   1222.0
         Total DFT energy =    -5283.111663980177
         Total DFT energy =    -5283.115578567653
@    3   -5283.11557857 -4.2D-05  0.00114  0.00017  0.00561  0.03706   1667.8
         Total DFT energy =    -5283.113665007084
         Total DFT energy =    -5283.115645415757
@    4   -5283.11564542 -6.7D-05  0.00087  0.00012  0.00373  0.01526   2064.5
         Total DFT energy =    -5283.115309534958
         Total DFT energy =    -5283.114013493967
@    5   -5283.11401349  1.6D-03  0.00194  0.00021  0.01219  0.05200   2495.8
         Total DFT energy =    -5283.115884911571
         Total DFT energy =    -5283.115629633176
@    6   -5283.11562963 -1.6D-03  0.00399  0.00065  0.03631  0.13077   2872.0
         Total DFT energy =    -5283.115362319288
         Total DFT energy =    -5283.115838981528
@    7   -5283.11583898 -2.1D-04  0.00297  0.00043  0.01869  0.09753   3190.3
         Total DFT energy =    -5283.112835220330
         Total DFT energy =    -5283.115983227861
@    8   -5283.11598323 -1.4D-04  0.00189  0.00027  0.01118  0.03718   3539.5
         Total DFT energy =    -5283.113925913694
         Total DFT energy =    -5283.116014992840
@    9   -5283.11601499 -3.2D-05  0.00165  0.00023  0.00260  0.01542   3940.0
         Total DFT energy =    -5283.115807839527
         Total DFT energy =    -5283.115940749711
@   10   -5283.11594075  7.4D-05  0.00114  0.00016  0.00536  0.03278   4316.7
         Total DFT energy =    -5283.114297933862
         Total DFT energy =    -5283.115947271650
@   11   -5283.11594727 -6.5D-06  0.00107  0.00015  0.00071  0.00247   4642.0
         Total DFT energy =    -5283.114253300169
         Total DFT energy =    -5283.115962155018
@   12   -5283.11596216 -1.5D-05  0.00099  0.00013  0.00141  0.00614   4958.3
         Total DFT energy =    -5283.114309207413
         Total DFT energy =    -5283.115979856775
@   13   -5283.11597986 -1.8D-05  0.00089  0.00011  0.00156  0.00740   5287.7
         Total DFT energy =    -5283.115937154009
         Total DFT energy =    -5283.116060944842
@   14   -5283.11606094 -8.1D-05  0.00199  0.00019  0.00990  0.03279   5606.7
         Total DFT energy =    -5283.115943905465
         Total DFT energy =    -5283.116100757070
@   15   -5283.11610076 -4.0D-05  0.00117  0.00021  0.00979  0.03938   5924.1
         Total DFT energy =    -5283.114413432835
         Total DFT energy =    -5283.116108207050
@   16   -5283.11610821 -7.4D-06  0.00116  0.00021  0.00082  0.00329   6251.5
         Total DFT energy =    -5283.114482460787
         Total DFT energy =    -5283.116119915991
@   17   -5283.11611992 -1.2D-05  0.00117  0.00020  0.00117  0.00529   6563.6
         Total DFT energy =    -5283.114448624383
         Total DFT energy =    -5283.116139344336
@   18   -5283.11613934 -1.9D-05  0.00106  0.00018  0.00144  0.00695   6866.8
         Total DFT energy =    -5283.114601523826
         Total DFT energy =    -5283.116160706406
@   19   -5283.11616071 -2.1D-05  0.00100  0.00016  0.00171  0.00722   7167.2
         Total DFT energy =    -5283.116418975289
         Total DFT energy =    -5283.114902425528
@   20   -5283.11490243  1.3D-03  0.00717  0.00105  0.07977  0.32265   7502.5
         Total DFT energy =    -5283.116062650319
         Total DFT energy =    -5283.114667324509
@   21   -5283.11466732  2.4D-04  0.00191  0.00033  0.05439  0.18359   7840.7
         Total DFT energy =    -5283.114790767358
         Total DFT energy =    -5283.116519439787
@   22   -5283.11651944 -1.9D-03  0.00063  0.00013  0.01716  0.07376   8151.9
         Total DFT energy =    -5283.116553385866
         Total DFT energy =    -5283.116556914054
@   23   -5283.11655691 -3.7D-05  0.00031  0.00008  0.00989  0.04885   8429.6
         Total DFT energy =    -5283.116585783635
         Total DFT energy =    -5283.116587825822
@   24   -5283.11658783 -3.1D-05  0.00047  0.00007  0.00732  0.03276   8716.5
         Total DFT energy =    -5283.116602051505
         Total DFT energy =    -5283.116602711732
@   25   -5283.11660271 -1.5D-05  0.00037  0.00007  0.00508  0.01609   8996.4
         Total DFT energy =    -5283.116644680955
         Total DFT energy =  -5283.116644680955
@   26   -5283.11664468 -4.2D-05  0.00058  0.00010  0.00797  0.03114   9199.4
         Total DFT energy =    -5283.116678197075
         Total DFT energy =  -5283.116678197075
@   27   -5283.11667820 -3.4D-05  0.00036  0.00007  0.00975  0.03299   9401.9
         Total DFT energy =    -5283.116705663731
         Total DFT energy =    -5283.116637540785
@   28   -5283.11663754  4.1D-05  0.00142  0.00023  0.02299  0.10079   9706.6
         Total DFT energy =    -5283.116711164654
         Total DFT energy =    -5283.116724857366
@   29   -5283.11672486 -8.7D-05  0.00051  0.00009  0.01132  0.05250  10001.2
         Total DFT energy =    -5283.116734564301
         Total DFT energy =    -5283.116739855835
@   30   -5283.11673986 -1.5D-05  0.00025  0.00004  0.00448  0.01740  10287.8
         Total DFT energy =    -5283.116744930459
         Total DFT energy =    -5283.116746782238
@   31   -5283.11674678 -6.9D-06  0.00016  0.00002  0.00370  0.01250  10573.8
         Total DFT energy =    -5283.116759548648
         Total DFT energy =  -5283.116759548648
@   32   -5283.11675955 -1.3D-05  0.00037  0.00005  0.00506  0.02317  10774.3
         Total DFT energy =    -5283.116785296763
         Total DFT energy =    -5283.116743011658
@   33   -5283.11674301  1.7D-05  0.00090  0.00015  0.01836  0.10837  11062.8
         Total DFT energy =    -5283.116790692900
         Total DFT energy =    -5283.116798869058
@   34   -5283.11679887 -5.6D-05  0.00029  0.00006  0.00771  0.03962  11334.6
         Total DFT energy =    -5283.116810865922
         Total DFT energy =    -5283.116811647440
@   35   -5283.11681165 -1.3D-05  0.00016  0.00003  0.00498  0.02004  11617.5
         Total DFT energy =    -5283.116818866125
         Total DFT energy =  -5283.116818866125
@   36   -5283.11681887 -7.2D-06  0.00013  0.00003  0.00316  0.01472  11794.0
         Total DFT energy =    -5283.116829039485
         Total DFT energy =    -5283.116842732743
@   37   -5283.11684273 -2.4D-05  0.00061  0.00006  0.00833  0.03935  12071.1
         Total DFT energy =    -5283.116859316597
         Total DFT energy =    -5283.116858045989
@   38   -5283.11685805 -1.5D-05  0.00081  0.00008  0.00824  0.03220  12352.8
         Total DFT energy =    -5283.116863600131
         Total DFT energy =    -5283.116863774052
@   39   -5283.11686377 -5.7D-06  0.00043  0.00004  0.00263  0.00817  12632.4
         Total DFT energy =    -5283.116868202727
         Total DFT energy =  -5283.116868202727
@   40   -5283.11686820 -4.4D-06  0.00028  0.00002  0.00318  0.01037  12816.2
         Total DFT energy =    -5283.116871946171
         Total DFT energy =  -5283.116871946171
@   41   -5283.11687195 -3.7D-06  0.00028  0.00003  0.00423  0.01569  12995.7
         Total DFT energy =    -5283.116881579979
         Total DFT energy =    -5283.116882626364
@   42   -5283.11688263 -1.1D-05  0.00025  0.00004  0.00592  0.02796  13258.1
         Total DFT energy =    -5283.116890404704
         Total DFT energy =    -5283.116891307247
@   43   -5283.11689131 -8.7D-06  0.00027  0.00003  0.00617  0.02429  13527.5
         Total DFT energy =    -5283.116901567450
         Total DFT energy =    -5283.116906337076
@   44   -5283.11690634 -1.5D-05  0.00074  0.00005  0.00759  0.02763  13802.6
         Total DFT energy =    -5283.116906574676
         Total DFT energy =  -5283.116906574676
@   45   -5283.11690657 -2.4D-07  0.00042  0.00003  0.00355  0.01340  13983.8
         Total DFT energy =    -5283.116914683807
         Total DFT energy =    -5283.116914325063
@   46   -5283.11691433 -7.8D-06  0.00082  0.00005  0.00337  0.01649  14217.3
         Total DFT energy =    -5283.116915738949
         Total DFT energy =  -5283.116915738949
@   47   -5283.11691574 -1.4D-06  0.00095  0.00006  0.00401  0.01755  14414.7
         Total DFT energy =    -5283.116925851362
         Total DFT energy =    -5283.116929598531
@   48   -5283.11692960 -1.4D-05  0.00113  0.00009  0.01075  0.04473  14693.7
         Total DFT energy =    -5283.116947272265
         Total DFT energy =    -5283.116946132537
@   49   -5283.11694613 -1.7D-05  0.00072  0.00007  0.00883  0.02844  14984.8
         Total DFT energy =    -5283.116953079832
         Total DFT energy =    -5283.116952811866
@   50   -5283.11695281 -6.7D-06  0.00024  0.00002  0.00278  0.00988  15257.8
         Total DFT energy =    -5283.116958571984
         Total DFT energy =    -5283.116958100571
@   51   -5283.11695810 -5.3D-06  0.00071  0.00004  0.00440  0.01432  15501.6
         Total DFT energy =    -5283.116961249500
         Total DFT energy =  -5283.116961249500
@   52   -5283.11696125 -3.1D-06  0.00137  0.00008  0.00446  0.01240  15702.8
         Total DFT energy =    -5283.116969463088
         Total DFT energy =    -5283.116973731398
@   53   -5283.11697373 -1.2D-05  0.00023  0.00003  0.00445  0.01639  15968.3
         Total DFT energy =    -5283.116980191771
         Total DFT energy =    -5283.116981627656
@   54   -5283.11698163 -7.9D-06  0.00040  0.00004  0.00390  0.01964  16236.2
         Total DFT energy =    -5283.116990735693
         Total DFT energy =    -5283.116995088891
@   55   -5283.11699509 -1.3D-05  0.00047  0.00004  0.00524  0.01819  16496.4
         Total DFT energy =    -5283.116996671546
         Total DFT energy =  -5283.116996671546
@   56   -5283.11699667 -1.6D-06  0.00021  0.00002  0.00140  0.00447  16674.9
         Total DFT energy =    -5283.117000379320
         Total DFT energy =  -5283.117000379320
@   57   -5283.11700038 -3.7D-06  0.00024  0.00002  0.00179  0.00831  16856.2
         Total DFT energy =    -5283.117004773128
         Total DFT energy =  -5283.117004773128
@   58   -5283.11700477 -4.4D-06  0.00016  0.00002  0.00327  0.01581  17034.2
         Total DFT energy =    -5283.117010546557
         Total DFT energy =    -5283.117013728359
@   59   -5283.11701373 -9.0D-06  0.00028  0.00002  0.00459  0.02513  17304.5
         Total DFT energy =    -5283.117015922820
         Total DFT energy =  -5283.117015922820
@   60   -5283.11701592 -2.2D-06  0.00008  0.00001  0.00177  0.00796  17497.4
         Total DFT energy =    -5283.115339715525
         Total DFT energy =    -5283.117015339532
@   61   -5283.11701534  5.8D-07  0.00008  0.00001  0.00001  0.00002  17771.6
@   61   -5283.11701534  5.8D-07  0.00008  0.00001  0.00001  0.00002  17771.6

 Output coordinates in angstroms (scale by  1.889725989 to convert to a.u.)

  No.       Tag          Charge          X              Y              Z
 ---- ---------------- ---------- -------------- -------------- --------------
    1 O                    8.0000    -4.76969800     1.76405601    -3.21152412
    2 H                    1.0000     2.58355508    -5.67303916    -1.68936073
    3 H                    1.0000    -4.68785100     9.75381147     4.33394866
    4 Si                  14.0000     1.91229828   -10.33570898     1.33372534
    5 Si                  14.0000    -1.52240603    -8.02752956    -1.95650280
    6 Si                  14.0000    -3.22381475    -3.60632070    -4.88996348
    7 H                    1.0000    -1.65215551     6.39495278     0.18787173
    8 Si                  14.0000     4.01531478    -5.41580916     0.42608473
    9 Si                  14.0000    -0.30654225    -2.66846827    -1.10086678
   10 Si                  14.0000    -4.28465212     0.64162417    -2.09437593
   11 H                    1.0000     2.00566392     2.67591468    -2.82072681
   12 Si                  14.0000     4.62579522    -0.70542953    -1.44807680
   13 Si                  14.0000     0.52348399     2.21980171    -0.42485306
   14 Si                  14.0000    -3.79406024     4.68504567     1.26265273
   15 H                    1.0000     0.56946161    -9.31653758    -1.05691666
   16 Si                  14.0000     3.77129463     4.27986848    -3.32217071
   17 Si                  14.0000     0.68587919     7.28717106    -0.10321626
   18 Si                  14.0000    -2.39732160     8.52005791     4.05433559
   19 O                    8.0000     2.97329126    -0.72601175    -1.78629400
   20 O                    8.0000    -1.60092320    -6.50982641     4.06919680
   21 O                    8.0000    -6.23633724    -5.18321405     0.45964230
   22 O                    8.0000     0.95915712     6.94884861    -1.71695490
   23 O                    8.0000    -0.92894241     2.61413012    -1.15601901
   24 O                    8.0000     1.99301800    -2.20746557     4.60434797
   25 O                    8.0000    -3.61058458    -1.41346239     3.67650455
   26 O                    8.0000    -1.90116194     8.53106298     2.47497373
   27 O                    8.0000    -4.80835474     5.93944279     0.88893038
   28 O                    8.0000     4.65894501     2.20321756     2.75417448
   29 O                    8.0000     0.40615049     2.36120793     4.56760838
   30 H                    1.0000     2.26255735    -1.39834796    -1.80975131
   31 H                    1.0000     4.64394227     4.53464642    -5.74661697
   32 O                    8.0000    -2.49165217     4.65176445     0.20652365
   33 O                    8.0000    -0.99196760    -1.98930876    -2.45514367
   34 O                    8.0000     3.13587496    -7.38012430     4.06710849
   35 O                    8.0000     5.16478155     0.86098359    -1.38460863
   36 Si                  14.0000     4.94414622     3.51258681     1.77681385
   37 Si                  14.0000     0.48534907     4.03517990     4.43111363
   38 O                    8.0000    -1.32996223    -5.63013079     1.49988314
   39 O                    8.0000    -5.28167289    -3.28708847    -1.25464153
   40 H                    1.0000    -5.34311493     6.69951120     0.67334945
   41 H                    1.0000     2.51247744   -10.41939530    -1.18215468
   42 Si                  14.0000     2.32980776    -7.28515068     2.61900911
   43 O                    8.0000     4.72332949     3.34480243    -2.33668627
   44 O                    8.0000     1.48214709     6.10907342     0.79565109
   45 O                    8.0000     2.28329421     3.37254502    -3.51012193
   46 Si                  14.0000    -1.95293940    -5.34584796    -0.02216622
   47 O                    8.0000     1.17098593     4.42393586     2.96238109
   48 H                    1.0000     0.71161175     6.54816778    -2.56595700
   49 H                    1.0000    -4.20172944     4.33083694     6.21116332
   50 Si                  14.0000    -5.42852179    -2.43543413    -2.68092285
   51 O                    8.0000     3.47034348     4.29004503     1.57166768
   52 O                    8.0000    -0.94459157     7.06595742     0.20982578
   53 O                    8.0000    -1.77241311    -6.69423342    -0.98382692
   54 O                    8.0000    -3.23232331     4.87030969     2.82508078
   55 O                    8.0000     6.24409830    -2.32253715     2.19887623
   56 O                    8.0000    -3.85896353     9.29194678     4.24667436
   57 O                    8.0000    -4.39182675    -3.08497827    -3.82085123
   58 H                    1.0000     3.68014656   -11.98957378     2.32057559
   59 O                    8.0000     1.00277567    -0.91812969     2.42195493
   60 H                    1.0000    -5.00221638     2.42461393    -3.85982912
   61 H                    1.0000     2.15271649     0.84920632    -1.75344804
   62 O                    8.0000     3.33559926     5.69422831    -2.61268296
   63 O                    8.0000    -4.14256338     0.73036509     2.05797606
   64 H                    1.0000     6.71239168     5.14827222     2.78207816
   65 O                    8.0000     4.33618409    -3.89639573     1.02515809
   66 O                    8.0000     1.18071899     8.80720462     0.30800307
   67 H                    1.0000     1.90105227     5.06192503     6.36754994
   68 O                    8.0000    -1.26992621     9.22201482     5.05670433
   69 H                    1.0000    -7.89598113    -2.49068101    -3.53541173
   70 H                    1.0000    -7.61246445     1.35172705     1.50887457
   71 H                    1.0000     8.18476950     2.67133647    -1.97339745
   72 H                    1.0000    -2.19360828    -6.95999039     4.66510060
   73 H                    1.0000    -6.94502691    -5.80340417     0.60681582
   74 O                    8.0000     3.20294423    -6.34533314     1.54308793
   75 O                    8.0000    -1.08155468    -4.07857441    -0.68212794
   76 H                    1.0000     1.99068015    -2.79802067     5.35552169
   77 H                    1.0000    -3.71692147    -2.21199683     4.19199092
   78 O                    8.0000    -3.58369588     4.55163888     5.51836537
   79 O                    8.0000    -1.08269075     4.60424202     4.46385302
   80 O                    8.0000     4.43418069     4.46556067    -4.81742457
   81 O                    8.0000    -0.16603049    -8.83957735    -1.46763701
   82 H                    1.0000     6.27676605    -6.56111447    -0.21199990
   83 O                    8.0000    -4.93774903    -0.85988554    -2.41729223
   84 O                    8.0000    -0.20983085    -4.21005732     3.53865498
   85 O                    8.0000    -4.91563867    -2.98651388     1.43112732
   86 O                    8.0000    -2.50682999    -4.98548005    -4.33607732
   87 H                    1.0000     4.27897900     1.46412823     3.24300714
   88 O                    8.0000     2.66839138     0.39064398     4.04699515
   89 O                    8.0000    -2.73246757     1.09787562     4.34202596
   90 H                    1.0000    -1.35215924    -2.07576245    -3.36205848
   91 O                    8.0000     0.83356356    -6.58830620     2.82782762
   92 O                    8.0000     6.07318172     4.53942011     2.42190553
   93 O                    8.0000     1.37909126     4.66760735     5.67335536
   94 O                    8.0000     5.43525883    -6.16117761    -0.00711543
   95 O                    8.0000    -3.54182607    -4.86924327     0.07821696
   96 H                    1.0000    -0.10235248     1.54772468     4.56811957
   97 O                    8.0000     5.42897313     2.99658866     0.25980399
   98 O                    8.0000     1.31902463    -3.00328028    -1.36432444
   99 H                    1.0000    -1.62584268     2.14792046    -1.65674927
  100 H                    1.0000     3.59783419    -7.43428018     4.89971448
  101 O                    8.0000    -6.99353553    -2.47948188    -3.22772198
  102 H                    1.0000    -1.57564314     8.23717325     1.60799655
  103 O                    8.0000     4.79535927    -1.45629323     0.03466869
  104 O                    8.0000     5.44972856    -1.55771895    -2.60930854
  105 H                    1.0000     7.09254554    -2.24395400     2.62820361
  106 Si                  14.0000     5.67512639     2.45124436    -1.29032348
  107 O                    8.0000     0.21919753     0.93332297     0.59393457
  108 O                    8.0000    -0.39640650    -1.60881194     0.18189783
  109 O                    8.0000     3.60616422    -1.69403220     2.47379655
  110 Si                  14.0000     1.84946485     4.62905546     1.45037682
  111 H                    1.0000    -2.13591183    -5.79039370    -3.94731278
  112 H                    1.0000    -2.77088152     1.85942883     4.92239107
  113 H                    1.0000     0.18371752    -3.36372905     3.76067105
  114 Si                  14.0000    -2.62579234     5.23624432     4.33860747
  115 O                    8.0000     1.16087412     3.48110018     0.43286173
  116 O                    8.0000     3.05115417   -11.39058959     1.92616542
  117 O                    8.0000    -2.61408164     0.46962781    -2.12956575
  118 H                    1.0000    -1.89665984     4.10767344    -0.34429372
  119 O                    8.0000    -4.56427452     3.20926390     1.13906835
  120 H                    1.0000     5.93121680    -2.00622867    -3.29993283
  121 H                    1.0000    -0.98640576    -7.56401380    -4.44321100
  122 Si                  14.0000     4.76650739    -2.33303303     1.45266307
  123 H                    1.0000     2.03816469    -3.64385857    -1.22405108
  124 H                    1.0000    -1.61821172    -1.68640346    -5.50534279
  125 O                    8.0000     0.38015081   -10.85753993     1.68759547
  126 Si                  14.0000    -0.21766999    -0.46923790     1.37874313
  127 O                    8.0000    -1.61504555    -0.23933885     2.25223192
  128 O                    8.0000     2.09139322   -10.25353093    -0.33956598
  129 O                    8.0000    -2.86050942    -9.01087685    -1.91108560
  130 Si                  14.0000    -5.07098765     1.62727625     0.98926008
  131 H                    1.0000    -1.89039601    -0.17075372    -2.22683124
  132 O                    8.0000     7.26878272     2.57080307    -1.72716911
  133 O                    8.0000     3.03706828    -5.27979989    -0.94234622
  134 O                    8.0000    -1.29276805    -7.49651969    -3.53960970
  135 O                    8.0000    -6.68143524     1.46219441     1.33356732
  136 O                    8.0000     2.15355144    -8.81563458     1.97191807
  137 O                    8.0000    -3.87902617    -3.82546536    -6.40227868
  138 O                    8.0000    -2.07153341    -2.36833555    -5.00705318
  139 Si                  14.0000    -0.59715249    -5.73238982     2.99946126
  140 Si                  14.0000     2.34673139    -1.11325011     3.39551830
  141 H                    1.0000    -0.52430846   -11.10132909     1.86860890
  142 H                    1.0000    -3.66013212    -9.52925611    -1.87407146
  143 Si                  14.0000    -5.02093689    -4.08417251     0.19353674
  144 Si                  14.0000    -3.03585349     0.04023246     3.08925210
  145 H                    1.0000    -4.30340833    -3.97729040    -7.24278848
  146 O                    8.0000    -2.56930032     6.89182103     4.45765515
  147 O                    8.0000     1.63393377     1.67745401    -1.58022131
  148 H                    1.0000    -4.69030810    -2.33338636     2.10001762
  149 O                    8.0000    -4.73870510     1.12509908    -0.56403054
  150 H                    1.0000     2.29957928     1.21701733     4.38833709
  151 H                    1.0000    -0.60408105     9.62004831     5.61002911
  152 H                    1.0000     1.43117052     9.68967066     0.56958560
  153 H                    1.0000     2.78575704     6.37461940    -2.19728748
  154 Os                  76.0000     0.60869224     3.76201385    -4.96943537
  155 O                    8.0000    -0.72110286     4.05477107    -6.05081607
  156 O                    8.0000     1.90848806     3.77645210    -6.12086328
  157 O                    8.0000     0.12131399     2.20438057    -4.37210774
  158 O                    8.0000     0.43605478     5.18115657    -3.96040392

 Total times  cpu:    16284.8s     wall:    17772.8s
