============================== echo of input deck ==============================
echo

start molecule

memory total 40 gb
print low

title "TMS"
charge 0

geometry units angstroms print xyz autosym
  #load format xyz TMS.start_geom.xyz
  load format xyz TMS.converged_geometry_pbe0_tz2p_good_cosmo-chcl3.xyz
end

basis
  * library cc-pvtz
end

dft
  grid huge
  xc b3lyp
  mult 1
  noprint "final vectors analysis"
end

driver
  clear
  tight
  linopt 0
  maxiter 999
  xyz TMS_geom
end

property
  giao
  shielding
end

cosmo
  solvent chcl3
end

task dft energy
#task dft freq
task dft property

================================================================================

 Output coordinates in angstroms (scale by  1.889725989 to convert to a.u.)

  No.       Tag          Charge          X              Y              Z
 ---- ---------------- ---------- -------------- -------------- --------------
    1 Si                  14.0000    -0.00018405    -0.00004196     0.00020904
    2 C                    6.0000     0.11828349     1.64109233     0.90161019
    3 C                    6.0000     0.90247353    -1.31984520     0.98155613
    4 C                    6.0000     0.78287960     0.16150700    -1.69699127
    5 C                    6.0000    -1.80346947    -0.48271440    -0.18635201
    6 H                    1.0000    -0.40053873     2.42891061     0.34979805
    7 H                    1.0000    -0.33093894     1.57516358     1.89567263
    8 H                    1.0000     1.16053297     1.94644076     1.02327464
    9 H                    1.0000     1.95751620    -1.06286779     1.10479159
   10 H                    1.0000     0.46601465    -1.43490947     1.97683180
   11 H                    1.0000     0.84897051    -2.28778841     0.47700838
   12 H                    1.0000     0.72762591    -0.78235032    -2.24509052
   13 H                    1.0000     0.27533715     0.92547220    -2.29119449
   14 H                    1.0000     1.83594885     0.44258330    -1.61696040
   15 H                    1.0000    -1.90093313    -1.43704111    -0.70989082
   16 H                    1.0000    -2.28459596    -0.58401306     0.78965414
   17 H                    1.0000    -2.35336561     0.27074881    -0.75575985

         Total DFT energy =     -449.297061812778
         Total DFT energy =     -449.297061840663
      Atom:    1  Si
           isotropic =     347.8236
      Atom:    2  C
           isotropic =     182.7751
      Atom:    3  C
           isotropic =     182.6892
      Atom:    4  C
           isotropic =     182.7246
      Atom:    5  C
           isotropic =     182.7712
      Atom:    6  H
           isotropic =      31.7254
      Atom:    7  H
           isotropic =      31.7190
      Atom:    8  H
           isotropic =      31.7109
      Atom:    9  H
           isotropic =      31.7083
      Atom:   10  H
           isotropic =      31.7079
      Atom:   11  H
           isotropic =      31.7215
      Atom:   12  H
           isotropic =      31.7199
      Atom:   13  H
           isotropic =      31.7195
      Atom:   14  H
           isotropic =      31.7104
      Atom:   15  H
           isotropic =      31.7131
      Atom:   16  H
           isotropic =      31.7186
      Atom:   17  H
           isotropic =      31.7114
 Total times  cpu:     3273.5s     wall:     3284.4s
