 Output coordinates in angstroms (scale by  1.889725989 to convert to a.u.)

  No.       Tag          Charge          X              Y              Z
 ---- ---------------- ---------- -------------- -------------- --------------
    1 O                    8.0000     0.00000000     0.00000000     0.32078972
    2 H                    1.0000     0.00000000     0.78657338    -0.30947095
    3 H                    1.0000     0.00000000    -0.78657338    -0.30947095

         Total DFT energy =      -75.886495708515

                       DFT Final Molecular Orbital Analysis
                       ------------------------------------

 Vector    1  Occ=2.000000D+00  E=-1.862622D+01

 Vector    2  Occ=2.000000D+00  E=-8.830480D-01

 Vector    3  Occ=2.000000D+00  E=-4.342205D-01

 Vector    4  Occ=2.000000D+00  E=-2.690795D-01

 Vector    5  Occ=2.000000D+00  E=-1.896991D-01

 Vector    6  Occ=0.000000D+00  E= 5.728448D-02

 Vector    7  Occ=0.000000D+00  E= 1.414241D-01

 Vector    8  Occ=0.000000D+00  E= 8.593235D-01

 Vector    9  Occ=0.000000D+00  E= 9.175341D-01

 Vector   10  Occ=0.000000D+00  E= 1.374211D+00

 Vector   11  Occ=0.000000D+00  E= 1.466099D+00

 Vector   12  Occ=0.000000D+00  E= 1.569211D+00

 Vector   13  Occ=0.000000D+00  E= 2.647153D+00

     Multipole analysis of the density
     ---------------------------------

     L   x y z        total         alpha         beta         nuclear
     -   - - -        -----         -----         ----         -------
     0   0 0 0     -0.000000     -5.000000     -5.000000     10.000000

     1   1 0 0      0.000000      0.000000      0.000000      0.000000
     1   0 1 0     -0.000000     -0.000000     -0.000000      0.000000
     1   0 0 1     -0.869030     -2.274518     -2.274518      3.680007

     2   2 0 0     -5.128979     -2.564490     -2.564490      0.000000
     2   1 1 0      0.000000      0.000000      0.000000      0.000000
     2   1 0 1     -0.000000     -0.000000     -0.000000      0.000000
     2   0 2 0     -3.219693     -3.819256     -3.819256      4.418818
     2   0 1 1      0.000000      0.000000      0.000000      0.000000

 Total times  cpu:        0.2s     wall:        0.3s
