============================== echo of input deck ==============================
echo

start molecule

memory total 40 gb

print low

title "der7"
charge 0

dft
  mult 1
end

geometry units angstroms print xyz autosym
  #load format xyz der1.pbe0_tz2p_good_cosmo-chcl3_optimized_geom.xyz
  load format xyz der7.geopt_freq_nmr_pbe0_tz2p_good_cosmo-chcl3_converged_geometry.xyz
end

basis
  * library 6-311++G(2d,2p)
end

dft
  direct
  grid fine
  xc b3lyp
  mult 1
# Reduce output during geometry optimization
  noprint "final vectors analysis"
end

#end

driver
  tight
  maxiter 9999
  xyz der7_b3lyp_geom_6-311++g2d_2p
end

cosmo
  solvent chcl3
end

task dft optimize
================================================================================

         Total DFT energy =    -1039.705913334512
@ Step       Energy      Delta E   Gmax     Grms     Xrms     Xmax   Walltime
@ ---- ---------------- -------- -------- -------- -------- -------- --------
@    0   -1039.70591333  0.0D+00  0.01262  0.00231  0.00000  0.00000   9638.2
         Total DFT energy =    -1039.707720548872
         Total DFT energy =  -1039.707720548872
@    1   -1039.70772055 -1.8D-03  0.00294  0.00039  0.06068  0.15306  13648.0
         Total DFT energy =    -1039.707897036165
         Total DFT energy =    -1039.707913547106
@    2   -1039.70791355 -1.9D-04  0.00079  0.00018  0.01742  0.04398  21028.7
         Total DFT energy =    -1039.707952111857
         Total DFT energy =    -1039.707962628916
@    3   -1039.70796263 -4.9D-05  0.00068  0.00011  0.02067  0.05991  28370.0
         Total DFT energy =    -1039.707983726638
         Total DFT energy =    -1039.707995742091
@    4   -1039.70799574 -3.3D-05  0.00087  0.00011  0.01728  0.04431  35746.9
         Total DFT energy =    -1039.708010701497
         Total DFT energy =    -1039.708014537125
@    5   -1039.70801454 -1.9D-05  0.00048  0.00008  0.02048  0.04516  43079.3
         Total DFT energy =    -1039.708022834220
         Total DFT energy =    -1039.708026305632
@    6   -1039.70802631 -1.2D-05  0.00041  0.00006  0.01899  0.04424  50315.0
         Total DFT energy =    -1039.708031921078
         Total DFT energy =    -1039.708034337361
@    7   -1039.70803434 -8.0D-06  0.00033  0.00006  0.01956  0.04327  57618.1
         Total DFT energy =    -1039.708038394611
         Total DFT energy =  -1039.708038394611
@    8   -1039.70803839 -4.1D-06  0.00021  0.00004  0.00477  0.01151  61516.5
         Total DFT energy =    -1039.708045680725
         Total DFT energy =    -1039.708046550861
@    9   -1039.70804655 -8.2D-06  0.00045  0.00006  0.03253  0.07485  68720.1
         Total DFT energy =    -1039.708049596325
         Total DFT energy =  -1039.708049596325
@   10   -1039.70804960 -3.0D-06  0.00030  0.00004  0.00193  0.00536  72584.1
         Total DFT energy =    -1039.708055170319
         Total DFT energy =    -1039.708051382381
@   11   -1039.70805138 -1.8D-06  0.00039  0.00007  0.03684  0.08066  79817.7
         Total DFT energy =    -1039.708055889844
         Total DFT energy =  -1039.708055889844
@   12   -1039.70805589 -4.5D-06  0.00005  0.00001  0.01829  0.04056  83697.1
         Total DFT energy =    -1039.708055983333
         Total DFT energy =  -1039.708055983333
@   13   -1039.70805598 -9.3D-08  0.00002  0.00001  0.00128  0.00301  87617.1
         Total DFT energy =    -1039.708056425498
         Total DFT energy =  -1039.708056425498
@   14   -1039.70805643 -4.4D-07  0.00003  0.00001  0.00131  0.00362  91560.0
         Total DFT energy =    -1039.708057102382
         Total DFT energy =  -1039.708057102382
@   15   -1039.70805710 -6.8D-07  0.00006  0.00001  0.00259  0.00663  95438.2
         Total DFT energy =    -1039.708058072137
         Total DFT energy =  -1039.708058072137
@   16   -1039.70805807 -9.7D-07  0.00007  0.00001  0.00411  0.01111  99322.6
         Total DFT energy =    -1039.708059330071
         Total DFT energy =  -1039.708059330071
@   17   -1039.70805933 -1.3D-06  0.00005  0.00001  0.00944  0.02498 103232.9
         Total DFT energy =    -1039.708059093092
         Total DFT energy =  -1039.708059093092
@   18   -1039.70805909  2.4D-07  0.00003  0.00000  0.00320  0.00748 107105.5
         Total DFT energy =    -1039.708058938722
         Total DFT energy =  -1039.708058938722
@   19   -1039.70805894  1.5D-07  0.00001  0.00000  0.00225  0.00486 111719.7
         Total DFT energy =    -1039.708059062190
         Total DFT energy =  -1039.708059062190
@   20   -1039.70805906 -1.2D-07  0.00000  0.00000  0.00104  0.00269 118027.6
         Total DFT energy =    -1039.708059058297
         Total DFT energy =  -1039.708059058297
@   21   -1039.70805906  3.9D-09  0.00000  0.00000  0.00011  0.00034 123397.2
         Total DFT energy =    -1039.708059055857
         Total DFT energy =  -1039.708059055857
@   22   -1039.70805906  2.4D-09  0.00000  0.00000  0.00008  0.00025 127829.8
         Total DFT energy =    -1039.708059059455
         Total DFT energy =  -1039.708059059455
@   23   -1039.70805906 -3.6D-09  0.00000  0.00000  0.00004  0.00015 131683.3
         Total DFT energy =    -1039.708059060839
         Total DFT energy =  -1039.708059060839
@   24   -1039.70805906 -1.4D-09  0.00000  0.00000  0.00004  0.00013 135528.7
         Total DFT energy =    -1039.708059060728
         Total DFT energy =  -1039.708059060728
@   25   -1039.70805906  1.1D-10  0.00000  0.00000  0.00004  0.00015 139550.1
         Total DFT energy =    -1039.708059065600
         Total DFT energy =  -1039.708059065600
@   26   -1039.70805907 -4.9D-09  0.00000  0.00000  0.00004  0.00011 143456.2
         Total DFT energy =    -1039.708059064839
         Total DFT energy =  -1039.708059064839
@   27   -1039.70805906  7.6D-10  0.00000  0.00000  0.00006  0.00019 147384.9
         Total DFT energy =    -1039.708059062537
         Total DFT energy =  -1039.708059062537
@   28   -1039.70805906  2.3D-09  0.00000  0.00000  0.00007  0.00022 151268.8
         Total DFT energy =    -1039.708059062876
         Total DFT energy =  -1039.708059062876
@   29   -1039.70805906 -3.4D-10  0.00000  0.00000  0.00004  0.00014 155222.4
         Total DFT energy =    -1039.708059061272
         Total DFT energy =  -1039.708059061272
@   30   -1039.70805906  1.6D-09  0.00000  0.00000  0.00005  0.00016 160160.6
         Total DFT energy =    -1039.708059060666
         Total DFT energy =  -1039.708059060666
@   31   -1039.70805906  6.1D-10  0.00000  0.00000  0.00005  0.00015 165122.6
         Total DFT energy =    -1039.708059066449
         Total DFT energy =  -1039.708059066449
@   32   -1039.70805907 -5.8D-09  0.00000  0.00000  0.00005  0.00012 170040.1
         Total DFT energy =    -1039.708059054951
         Total DFT energy =  -1039.708059054951
@   33   -1039.70805905  1.1D-08  0.00000  0.00000  0.00014  0.00034 174805.3
         Total DFT energy =    -1039.708059059155
         Total DFT energy =  -1039.708059059155
@   34   -1039.70805906 -4.2D-09  0.00000  0.00000  0.00006  0.00014 178730.7
         Total DFT energy =    -1039.708059062001
         Total DFT energy =  -1039.708059062001
@   35   -1039.70805906 -2.8D-09  0.00000  0.00000  0.00003  0.00011 182697.0
         Total DFT energy =    -1039.708059055123
         Total DFT energy =  -1039.708059055123
@   36   -1039.70805906  6.9D-09  0.00000  0.00000  0.00007  0.00020 186654.3
         Total DFT energy =    -1039.708059061295
         Total DFT energy =  -1039.708059061295
@   37   -1039.70805906 -6.2D-09  0.00000  0.00000  0.00006  0.00015 190609.2
         Total DFT energy =    -1039.708059057665
         Total DFT energy =  -1039.708059057665
@   38   -1039.70805906  3.6D-09  0.00000  0.00000  0.00005  0.00015 194508.8
         Total DFT energy =    -1039.708059053675
         Total DFT energy =  -1039.708059053675
@   39   -1039.70805905  4.0D-09  0.00000  0.00000  0.00003  0.00012 198794.5
         Total DFT energy =    -1039.708059062461
         Total DFT energy =  -1039.708059062461
@   40   -1039.70805906 -8.8D-09  0.00000  0.00000  0.00008  0.00020 203681.6
         Total DFT energy =    -1039.708059060454
         Total DFT energy =  -1039.708059060454
@   41   -1039.70805906  2.0D-09  0.00000  0.00000  0.00004  0.00012 208531.4
         Total DFT energy =    -1039.708059054792
         Total DFT energy =  -1039.708059054792
@   42   -1039.70805905  5.7D-09  0.00000  0.00000  0.00005  0.00015 213457.8
         Total DFT energy =    -1039.708059051701
         Total DFT energy =  -1039.708059051701
@   43   -1039.70805905  3.1D-09  0.00000  0.00000  0.00003  0.00011 218414.4
         Total DFT energy =    -1039.708059051799
         Total DFT energy =  -1039.708059051799
@   44   -1039.70805905 -9.8D-11  0.00000  0.00000  0.00001  0.00004 222453.3
@   44   -1039.70805905 -9.8D-11  0.00000  0.00000  0.00001  0.00004 222453.3

 Output coordinates in angstroms (scale by  1.889725989 to convert to a.u.)

  No.       Tag          Charge          X              Y              Z
 ---- ---------------- ---------- -------------- -------------- --------------
    1 O                    8.0000    -0.35908730     0.88097454    -0.15903800
    2 P                   15.0000    -0.47727804    -0.31276161     0.96559023
    3 O                    8.0000     0.95608577    -1.11291605     0.82555901
    4 O                    8.0000    -1.30531643    -1.44342271     0.08314243
    5 C                    6.0000     0.94412856    -2.18444686    -0.18133127
    6 C                    6.0000    -0.54490240    -2.66956087    -0.16184884
    7 C                    6.0000     1.37990889    -1.59373383    -1.52302687
    8 C                    6.0000     1.94866815    -3.23337491     0.27630850
    9 C                    6.0000    -0.85374080    -3.63541953     0.98388700
   10 C                    6.0000    -1.03072530    -3.24892351    -1.48393467
   11 H                    1.0000     1.50611903    -2.38110265    -2.26524458
   12 H                    1.0000     0.66429123    -0.86814573    -1.90143651
   13 H                    1.0000     2.33982229    -1.09568598    -1.39231436
   14 H                    1.0000     1.75916953    -3.55143924     1.29815475
   15 H                    1.0000     1.90773187    -4.10527929    -0.37683384
   16 H                    1.0000     2.95591670    -2.82165837     0.22451578
   17 H                    1.0000    -0.40217954    -4.61117647     0.81022251
   18 H                    1.0000    -0.49574247    -3.25264167     1.93875304
   19 H                    1.0000    -1.93296541    -3.76619802     1.04930313
   20 H                    1.0000    -0.43694899    -4.12316716    -1.75257109
   21 H                    1.0000    -2.06965628    -3.56148410    -1.38573925
   22 H                    1.0000    -0.96593536    -2.52156968    -2.28875181
   23 C                    6.0000    -0.77381758     2.23351251     0.19989822
   24 C                    6.0000     0.42774980     3.20304150     0.04900105
   25 H                    1.0000    -2.79268944     1.82945260    -0.41095477
   26 H                    1.0000    -1.79686655     2.51701711    -1.69427297
   27 C                    6.0000     0.94911989     3.24606104    -1.39641397
   28 C                    6.0000     1.56058377     2.74477082     0.98414610
   29 H                    1.0000    -2.39721971     3.54635688    -0.38780169
   30 C                    6.0000    -2.01088049     2.55710705    -0.62693484
   31 H                    1.0000    -1.05169071     2.22949630     1.25814846
   32 C                    6.0000    -0.01535619     4.61384105     0.47983158
   33 H                    1.0000     2.38849970     3.45387151     0.94506990
   34 H                    1.0000     1.94328363     1.76533012     0.70100121
   35 H                    1.0000     1.21681973     2.68818423     2.01914670
   36 H                    1.0000     0.19667732     3.62429001    -2.08886368
   37 H                    1.0000     1.25855247     2.25720355    -1.73464718
   38 H                    1.0000     1.81513568     3.90703173    -1.45842090
   39 H                    1.0000     0.84664705     5.28182286     0.49687925
   40 H                    1.0000    -0.44835724     4.60453045     1.48239190
   41 H                    1.0000    -0.74991782     5.03893662    -0.20340149

 Total times  cpu:   218502.6s     wall:   222453.8s
