============================== echo of input deck ==============================
echo

start molecule

memory total 40 gb

print low

title "der7"
charge 0

dft
  mult 1
end

geometry units angstroms print xyz autosym
  #load format xyz der1.pbe0_tz2p_good_cosmo-chcl3_optimized_geom.xyz
  load format xyz der7.geopt_freq_nmr_pbe0_tz2p_good_cosmo-chcl3_converged_geometry.xyz
end

basis
  * library 6-311++G(2d,2p)
end

dft
  direct
  grid fine
  xc pbe0
  mult 1
# Reduce output during geometry optimization
  noprint "final vectors analysis"
end

#end

driver
  tight
  maxiter 9999
  xyz der7_pbe0_geom_6-311++g2d_2p
end

cosmo
  solvent chcl3
end

task dft optimize
================================================================================

         Total DFT energy =    -1038.728909893980
@ Step       Energy      Delta E   Gmax     Grms     Xrms     Xmax   Walltime
@ ---- ---------------- -------- -------- -------- -------- -------- --------
@    0   -1038.72890989  0.0D+00  0.00535  0.00058  0.00000  0.00000  12265.0
         Total DFT energy =    -1038.729112902542
         Total DFT energy =    -1038.729149274981
@    1   -1038.72914927 -2.4D-04  0.00070  0.00012  0.04238  0.12787  21799.9
         Total DFT energy =    -1038.729174208456
         Total DFT energy =    -1038.729177411571
@    2   -1038.72917741 -2.8D-05  0.00042  0.00007  0.00938  0.02158  31297.2
         Total DFT energy =    -1038.729190786560
         Total DFT energy =    -1038.729202812936
@    3   -1038.72920281 -2.5D-05  0.00107  0.00011  0.02104  0.05123  40695.1
         Total DFT energy =    -1038.729223238684
         Total DFT energy =    -1038.729229990862
@    4   -1038.72922999 -2.7D-05  0.00117  0.00014  0.03621  0.09886  50166.8
         Total DFT energy =    -1038.729246546329
         Total DFT energy =    -1038.729251309566
@    5   -1038.72925131 -2.1D-05  0.00040  0.00006  0.02860  0.07680  59610.1
         Total DFT energy =    -1038.729257717855
         Total DFT energy =    -1038.729259638958
@    6   -1038.72925964 -8.3D-06  0.00049  0.00006  0.00858  0.02269  69119.1
         Total DFT energy =    -1038.729262307758
         Total DFT energy =  -1038.729262307758
@    7   -1038.72926231 -2.7D-06  0.00024  0.00003  0.00314  0.00843  74264.6
         Total DFT energy =    -1038.729265383080
         Total DFT energy =  -1038.729265383080
@    8   -1038.72926538 -3.1D-06  0.00016  0.00002  0.00906  0.02329  79370.8
         Total DFT energy =    -1038.729266662750
         Total DFT energy =  -1038.729266662750
@    9   -1038.72926666 -1.3D-06  0.00018  0.00002  0.00274  0.00660  84469.6
         Total DFT energy =    -1038.729268206322
         Total DFT energy =  -1038.729268206322
@   10   -1038.72926821 -1.5D-06  0.00013  0.00002  0.00513  0.01296  89528.7
         Total DFT energy =    -1038.729268787571
         Total DFT energy =  -1038.729268787571
@   11   -1038.72926879 -5.8D-07  0.00007  0.00001  0.00217  0.00563  94626.1
         Total DFT energy =    -1038.729269031248
         Total DFT energy =  -1038.729269031248
@   12   -1038.72926903 -2.4D-07  0.00005  0.00001  0.00113  0.00284  99701.7
         Total DFT energy =    -1038.729269140299
         Total DFT energy =  -1038.729269140299
@   13   -1038.72926914 -1.1D-07  0.00004  0.00001  0.00088  0.00219 104801.2
         Total DFT energy =    -1038.729269224643
         Total DFT energy =  -1038.729269224643
@   14   -1038.72926922 -8.4D-08  0.00005  0.00001  0.00087  0.00346 109877.1
         Total DFT energy =    -1038.729269309185
         Total DFT energy =  -1038.729269309185
@   15   -1038.72926931 -8.5D-08  0.00007  0.00001  0.00145  0.00581 114971.4
         Total DFT energy =    -1038.729269374576
         Total DFT energy =  -1038.729269374576
@   16   -1038.72926937 -6.5D-08  0.00006  0.00001  0.00206  0.00781 120085.1
         Total DFT energy =    -1038.729269446952
         Total DFT energy =  -1038.729269446952
@   17   -1038.72926945 -7.2D-08  0.00003  0.00000  0.00059  0.00221 125150.6
         Total DFT energy =    -1038.729269456595
         Total DFT energy =  -1038.729269456595
@   18   -1038.72926946 -9.6D-09  0.00001  0.00000  0.00055  0.00162 130330.9
         Total DFT energy =    -1038.729269448914
         Total DFT energy =  -1038.729269448914
@   19   -1038.72926945  7.7D-09  0.00001  0.00000  0.00016  0.00046 135364.9
         Total DFT energy =    -1038.729269464636
         Total DFT energy =  -1038.729269464636
@   20   -1038.72926946 -1.6D-08  0.00000  0.00000  0.00018  0.00055 140431.6
         Total DFT energy =    -1038.729269447092
         Total DFT energy =  -1038.729269447092
@   21   -1038.72926945  1.8D-08  0.00001  0.00000  0.00018  0.00073 145599.4
         Total DFT energy =    -1038.729269461719
         Total DFT energy =  -1038.729269461719
@   22   -1038.72926946 -1.5D-08  0.00000  0.00000  0.00022  0.00056 150665.0
         Total DFT energy =    -1038.729269443169
         Total DFT energy =  -1038.729269443169
@   23   -1038.72926944  1.9D-08  0.00001  0.00000  0.00017  0.00073 155713.9
         Total DFT energy =    -1038.729269457130
         Total DFT energy =  -1038.729269457130
@   24   -1038.72926946 -1.4D-08  0.00000  0.00000  0.00019  0.00050 160780.2
         Total DFT energy =    -1038.729269453247
         Total DFT energy =  -1038.729269453247
@   25   -1038.72926945  3.9D-09  0.00000  0.00000  0.00009  0.00024 165876.6
         Total DFT energy =    -1038.729269452303
         Total DFT energy =  -1038.729269452303
@   26   -1038.72926945  9.4D-10  0.00000  0.00000  0.00009  0.00025 171002.9
         Total DFT energy =    -1038.729269450988
         Total DFT energy =  -1038.729269450988
@   27   -1038.72926945  1.3D-09  0.00000  0.00000  0.00004  0.00012 176097.7
         Total DFT energy =    -1038.729269449869
         Total DFT energy =  -1038.729269449869
@   28   -1038.72926945  1.1D-09  0.00000  0.00000  0.00005  0.00014 181192.2
         Total DFT energy =    -1038.729269447806
         Total DFT energy =  -1038.729269447806
@   29   -1038.72926945  2.1D-09  0.00000  0.00000  0.00005  0.00016 186344.3
         Total DFT energy =    -1038.729269445557
         Total DFT energy =  -1038.729269445557
@   30   -1038.72926945  2.2D-09  0.00000  0.00000  0.00004  0.00011 191480.3
         Total DFT energy =    -1038.729269443839
         Total DFT energy =  -1038.729269443839
@   31   -1038.72926944  1.7D-09  0.00000  0.00000  0.00006  0.00017 196598.3
         Total DFT energy =    -1038.729269442241
         Total DFT energy =  -1038.729269442241
@   32   -1038.72926944  1.6D-09  0.00000  0.00000  0.00007  0.00018 201689.7
         Total DFT energy =    -1038.729269439969
         Total DFT energy =  -1038.729269439969
@   33   -1038.72926944  2.3D-09  0.00000  0.00000  0.00007  0.00022 206737.1
         Total DFT energy =    -1038.729269436163
         Total DFT energy =  -1038.729269436163
@   34   -1038.72926944  3.8D-09  0.00000  0.00000  0.00008  0.00020 211785.0
         Total DFT energy =    -1038.729269434389
         Total DFT energy =  -1038.729269434389
@   35   -1038.72926943  1.8D-09  0.00000  0.00000  0.00011  0.00030 216856.2
         Total DFT energy =    -1038.729269431733
         Total DFT energy =  -1038.729269431733
@   36   -1038.72926943  2.7D-09  0.00000  0.00000  0.00007  0.00017 221984.3
         Total DFT energy =    -1038.729269426328
         Total DFT energy =  -1038.729269426328
@   37   -1038.72926943  5.4D-09  0.00000  0.00000  0.00007  0.00019 227163.1
         Total DFT energy =    -1038.729269427273
         Total DFT energy =  -1038.729269427273
@   38   -1038.72926943 -9.5D-10  0.00000  0.00000  0.00002  0.00007 232291.3
         Total DFT energy =    -1038.729269424191
         Total DFT energy =  -1038.729269424191
@   39   -1038.72926942  3.1D-09  0.00000  0.00000  0.00003  0.00010 237480.2
         Total DFT energy =    -1038.729269421791
         Total DFT energy =  -1038.729269421791
@   40   -1038.72926942  2.4D-09  0.00000  0.00000  0.00004  0.00012 242561.8
         Total DFT energy =    -1038.729269423520
         Total DFT energy =  -1038.729269423520
@   41   -1038.72926942 -1.7D-09  0.00000  0.00000  0.00004  0.00010 247662.2
         Total DFT energy =    -1038.729269420579
         Total DFT energy =  -1038.729269420579
@   42   -1038.72926942  2.9D-09  0.00000  0.00000  0.00004  0.00011 252764.9
         Total DFT energy =    -1038.729269421282
         Total DFT energy =  -1038.729269421282
@   43   -1038.72926942 -7.0D-10  0.00000  0.00000  0.00002  0.00007 257839.0
         Total DFT energy =    -1038.729269417720
         Total DFT energy =  -1038.729269417720
@   44   -1038.72926942  3.6D-09  0.00000  0.00000  0.00003  0.00009 262917.5
         Total DFT energy =    -1038.729269416592
         Total DFT energy =  -1038.729269416592
@   45   -1038.72926942  1.1D-09  0.00000  0.00000  0.00002  0.00006 267983.8
@   45   -1038.72926942  1.1D-09  0.00000  0.00000  0.00002  0.00006 267983.8

 Output coordinates in angstroms (scale by  1.889725989 to convert to a.u.)

  No.       Tag          Charge          X              Y              Z
 ---- ---------------- ---------- -------------- -------------- --------------
    1 O                    8.0000    -0.47460479     0.87524672    -0.21242140
    2 P                   15.0000    -0.55803791    -0.30115646     0.91812215
    3 O                    8.0000     0.89329632    -1.05644776     0.82129361
    4 O                    8.0000    -1.32796094    -1.44977837     0.02487011
    5 C                    6.0000     0.92752852    -2.11526721    -0.17467715
    6 C                    6.0000    -0.53342008    -2.64515173    -0.16728128
    7 C                    6.0000     1.34365334    -1.51949805    -1.51080215
    8 C                    6.0000     1.95382273    -3.12933971     0.28556738
    9 C                    6.0000    -0.81962116    -3.58322740     0.99583974
   10 C                    6.0000    -0.96579644    -3.27769168    -1.47360613
   11 H                    1.0000     1.50476078    -2.30751041    -2.24739426
   12 H                    1.0000     0.59816631    -0.82536232    -1.89588507
   13 H                    1.0000     2.28290102    -0.98097583    -1.37887432
   14 H                    1.0000     1.76828296    -3.44885975     1.30941173
   15 H                    1.0000     1.93635352    -4.00459739    -0.36629238
   16 H                    1.0000     2.95087489    -2.69032781     0.23446049
   17 H                    1.0000    -0.33058495    -4.54743160     0.85467830
   18 H                    1.0000    -0.48390642    -3.15843548     1.94314065
   19 H                    1.0000    -1.89555716    -3.74998261     1.05435464
   20 H                    1.0000    -0.32692424    -4.13199359    -1.70531706
   21 H                    1.0000    -1.99270604    -3.63431703    -1.38631389
   22 H                    1.0000    -0.91509627    -2.56793862    -2.29714970
   23 C                    6.0000    -0.81487883     2.22285251     0.18064895
   24 C                    6.0000     0.42213630     3.13106879     0.04230576
   25 H                    1.0000    -2.85051627     1.93761441    -0.41998244
   26 H                    1.0000    -1.82474971     2.60316981    -1.69431920
   27 C                    6.0000     0.92882907     3.17781439    -1.39793835
   28 C                    6.0000     1.52990469     2.59640000     0.95044072
   29 H                    1.0000    -2.36376450     3.63263462    -0.35829884
   30 C                    6.0000    -2.03192655     2.62917429    -0.62375444
   31 H                    1.0000    -1.08357586     2.20967549     1.24465377
   32 C                    6.0000     0.05316412     4.54147667     0.50592170
   33 H                    1.0000     2.39303374     3.26490810     0.92208704
   34 H                    1.0000     1.86027028     1.60491401     0.63825679
   35 H                    1.0000     1.18973936     2.53086063     1.98772212
   36 H                    1.0000     0.19099406     3.61278196    -2.07488572
   37 H                    1.0000     1.18049507     2.17902527    -1.75922479
   38 H                    1.0000     1.83058289     3.79196063    -1.45368704
   39 H                    1.0000     0.94789358     5.16686665     0.53300838
   40 H                    1.0000    -0.37463161     4.52819941     1.51212812
   41 H                    1.0000    -0.66478685     5.01737064    -0.16363838

 Total times  cpu:   267783.5s     wall:   267983.8s
