============================== echo of input deck ==============================
echo

start molecule

memory total 40 gb
print low

title "TMS"
charge 0

geometry units angstroms print xyz autosym
  load format xyz TMS.start_geom.xyz
end

basis
  * library 6-311++G(2d,2p)
end

dft
  grid huge
  xc b3lyp
  mult 1
  noprint "final vectors analysis"
end

driver
  clear
  tight
  linopt 0
  maxiter 999
  xyz TMS_geom
end

property
  giao
  shielding
end

cosmo
  solvent h2o
end

task dft optimize
task dft freq
task dft property

================================================================================

         Total DFT energy =     -449.288129307714
@ Step       Energy      Delta E   Gmax     Grms     Xrms     Xmax   Walltime
@ ---- ---------------- -------- -------- -------- -------- -------- --------
@    0    -449.28812931  0.0D+00  0.00016  0.00007  0.00000  0.00000    521.1
         Total DFT energy =     -449.288133211802
@    1    -449.28813321 -3.9D-06  0.00008  0.00003  0.00114  0.00315    976.4
         Total DFT energy =     -449.288134645088
@    2    -449.28813465 -1.4D-06  0.00006  0.00002  0.00106  0.00296   1426.8
         Total DFT energy =     -449.288134887582
@    3    -449.28813489 -2.4D-07  0.00004  0.00001  0.00039  0.00090   1881.7
         Total DFT energy =     -449.288135365215
@    4    -449.28813537 -4.8D-07  0.00005  0.00001  0.00125  0.00285   2333.8
         Total DFT energy =     -449.288135656679
@    5    -449.28813566 -2.9D-07  0.00010  0.00002  0.00098  0.00223   2789.1
         Total DFT energy =     -449.288136172928
@    6    -449.28813617 -5.2D-07  0.00012  0.00002  0.00179  0.00420   3243.3
         Total DFT energy =     -449.288136797130
@    7    -449.28813680 -6.2D-07  0.00009  0.00002  0.00210  0.00491   3690.0
         Total DFT energy =     -449.288137552838
@    8    -449.28813755 -7.6D-07  0.00004  0.00001  0.00262  0.00588   4142.1
         Total DFT energy =     -449.288138120337
@    9    -449.28813812 -5.7D-07  0.00007  0.00002  0.00194  0.00446   4596.8
         Total DFT energy =     -449.288138476417
@   10    -449.28813848 -3.6D-07  0.00009  0.00002  0.00131  0.00329   5046.6
         Total DFT energy =     -449.288138597491
@   11    -449.28813860 -1.2D-07  0.00005  0.00001  0.00062  0.00176   5502.3
         Total DFT energy =     -449.288138614513
@   12    -449.28813861 -1.7D-08  0.00001  0.00000  0.00021  0.00057   5952.8
         Total DFT energy =     -449.288138610287
@   13    -449.28813861  4.2D-09  0.00001  0.00000  0.00010  0.00027   6404.8
         Total DFT energy =     -449.288138610946
@   14    -449.28813861 -6.6D-10  0.00001  0.00000  0.00006  0.00015   6855.8
         Total DFT energy =     -449.288138612987
@   15    -449.28813861 -2.0D-09  0.00000  0.00000  0.00002  0.00004   7310.4
@   15    -449.28813861 -2.0D-09  0.00000  0.00000  0.00002  0.00004   7310.4

 Output coordinates in angstroms (scale by  1.889725989 to convert to a.u.)

  No.       Tag          Charge          X              Y              Z
 ---- ---------------- ---------- -------------- -------------- --------------
    1 Si                  14.0000    -0.00003996     0.00052550     0.00071743
    2 C                    6.0000     0.89224240     1.52038577     0.67312904
    3 C                    6.0000     1.26244410    -1.20618720    -0.71186126
    4 C                    6.0000    -1.20159244     0.52530798    -1.35584176
    5 C                    6.0000    -0.95419521    -0.83837393     1.39481157
    6 H                    1.0000     0.18421741     2.23835290     1.09213116
    7 H                    1.0000     1.59551404     1.24402615     1.46141150
    8 H                    1.0000     1.45418807     2.02354657    -0.11635631
    9 H                    1.0000     1.83746169    -0.74217960    -1.51587651
   10 H                    1.0000     1.96487939    -1.53706878     0.05577136
   11 H                    1.0000     0.76849274    -2.09111407    -1.11835799
   12 H                    1.0000    -1.72673914    -0.33865499    -1.76818533
   13 H                    1.0000    -1.95025568     1.21975439    -0.96903603
   14 H                    1.0000    -0.67471064     1.02013089    -2.17432078
   15 H                    1.0000    -1.48282293    -1.72136364     1.02978035
   16 H                    1.0000    -0.28177966    -1.15709408     2.19386995
   17 H                    1.0000    -1.69239329    -0.15982444     1.82709344

         Total DFT energy =     -449.288138612980
         Total DFT energy =     -449.288122965063
         Total DFT energy =     -449.288122924635
         Total DFT energy =     -449.288122944921
         Total DFT energy =     -449.288122966779
         Total DFT energy =     -449.288122915483
         Total DFT energy =     -449.288122958331
         Total DFT energy =     -449.288114884677
         Total DFT energy =     -449.288114836691
         Total DFT energy =     -449.288117740605
         Total DFT energy =     -449.288117753605
         Total DFT energy =     -449.288114188187
         Total DFT energy =     -449.288114147556
         Total DFT energy =     -449.288116288841
         Total DFT energy =     -449.288116409109
         Total DFT energy =     -449.288116164001
         Total DFT energy =     -449.288116021026
         Total DFT energy =     -449.288114316094
         Total DFT energy =     -449.288114289262
         Total DFT energy =     -449.288116092138
         Total DFT energy =     -449.288116052572
         Total DFT energy =     -449.288113979706
         Total DFT energy =     -449.288113767567
         Total DFT energy =     -449.288116883002
         Total DFT energy =     -449.288116779725
         Total DFT energy =     -449.288115074260
         Total DFT energy =     -449.288115050005
         Total DFT energy =     -449.288114708546
         Total DFT energy =     -449.288114642983
         Total DFT energy =     -449.288116976889
         Total DFT energy =     -449.288117068977
         Total DFT energy =     -449.288130549912
         Total DFT energy =     -449.288130298666
         Total DFT energy =     -449.288130152894
         Total DFT energy =     -449.288130575952
         Total DFT energy =     -449.288134303222
         Total DFT energy =     -449.288134398476
         Total DFT energy =     -449.288130372615
         Total DFT energy =     -449.288130591411
         Total DFT energy =     -449.288135639867
         Total DFT energy =     -449.288135844397
         Total DFT energy =     -449.288128823676
         Total DFT energy =     -449.288129020932
         Total DFT energy =     -449.288132608448
         Total DFT energy =     -449.288132770902
         Total DFT energy =     -449.288133388728
         Total DFT energy =     -449.288133797939
         Total DFT energy =     -449.288129021879
         Total DFT energy =     -449.288128791568
         Total DFT energy =     -449.288132407388
         Total DFT energy =     -449.288132760824
         Total DFT energy =     -449.288133915153
         Total DFT energy =     -449.288134014308
         Total DFT energy =     -449.288128717997
         Total DFT energy =     -449.288128506159
         Total DFT energy =     -449.288130346733
         Total DFT energy =     -449.288130785929
         Total DFT energy =     -449.288135301021
         Total DFT energy =     -449.288135180752
         Total DFT energy =     -449.288129219284
         Total DFT energy =     -449.288129414070
         Total DFT energy =     -449.288133611765
         Total DFT energy =     -449.288133670602
         Total DFT energy =     -449.288127144520
         Total DFT energy =     -449.288126891902
         Total DFT energy =     -449.288134556718
         Total DFT energy =     -449.288134455616
         Total DFT energy =     -449.288133375472
         Total DFT energy =     -449.288133078664
         Total DFT energy =     -449.288127535266
         Total DFT energy =     -449.288127240628
         Total DFT energy =     -449.288134689904
         Total DFT energy =     -449.288134378562
         Total DFT energy =     -449.288129934629
         Total DFT energy =     -449.288129537116
         Total DFT energy =     -449.288130546942
         Total DFT energy =     -449.288130647861
         Total DFT energy =     -449.288134810753
         Total DFT energy =     -449.288134785178
         Total DFT energy =     -449.288133186666
         Total DFT energy =     -449.288133223598
         Total DFT energy =     -449.288133462321
         Total DFT energy =     -449.288133559455
         Total DFT energy =     -449.288128606013
         Total DFT energy =     -449.288128275764
         Total DFT energy =     -449.288133234082
         Total DFT energy =     -449.288133059879
         Total DFT energy =     -449.288127160244
         Total DFT energy =     -449.288126873505
         Total DFT energy =     -449.288134991659
         Total DFT energy =     -449.288135058894
         Total DFT energy =     -449.288130919412
         Total DFT energy =     -449.288131105315
         Total DFT energy =     -449.288135360956
         Total DFT energy =     -449.288135218722
         Total DFT energy =     -449.288128640205
         Total DFT energy =     -449.288129015627
         Total DFT energy =     -449.288130030902
         Total DFT energy =     -449.288129724842
         Total DFT energy =     -449.288130851806
         Total DFT energy =     -449.288130960344
         Total DFT energy =     -449.288134197075
         Total DFT energy =     -449.288134508638
 Zero-Point correction to Energy  =   91.678 kcal/mol  (  0.146099 au)
 Thermal correction to Energy     =   97.530 kcal/mol  (  0.155424 au)
 Thermal correction to Enthalpy   =   98.122 kcal/mol  (  0.156368 au)
 Total Entropy                    =   89.884 cal/mol-K
   - Translational                =   39.322 cal/mol-K (mol. weight =  88.0708)
   - Rotational                   =   26.788 cal/mol-K (symmetry #  =        1)
   - Vibrational                  =   23.775 cal/mol-K
   - Translational                  =    2.979 cal/mol-K
   - Rotational                     =    2.979 cal/mol-K
   - Vibrational                    =   27.039 cal/mol-K
 P.Frequency       -0.00        0.00        0.00        0.00        0.00        0.00
 P.Frequency      141.67      162.65      167.19      168.36      185.64      185.86
 P.Frequency      233.41      234.81      236.13      578.66      684.05      684.82
 P.Frequency      685.40      690.95      692.13      694.45      828.83      831.00
 P.Frequency      861.75      862.74      865.61     1272.07     1273.74     1274.90
 P.Frequency     1276.84     1444.11     1444.60     1446.60     1446.84     1447.97
 P.Frequency     1455.16     1455.77     1457.36     3018.40     3018.53     3018.85
 P.Frequency     3022.22     3087.09     3087.33     3088.57     3088.89     3089.09
 P.Frequency     3089.30     3089.92     3090.19

 Normal Eigenvalue ||           Projected Infra Red Intensities
  Mode   [cm**-1]  || [atomic units] [(debye/angs)**2] [(KM/mol)] [arbitrary]
 ------ ---------- || -------------- ----------------- ---------- -----------
    1       -0.000 ||    0.000004           0.000         0.003       0.001
    2        0.000 ||    0.000001           0.000         0.001       0.000
    3        0.000 ||    0.000008           0.000         0.008       0.003
    4        0.000 ||    0.000004           0.000         0.004       0.002
    5        0.000 ||    0.000006           0.000         0.006       0.002
    6        0.000 ||    0.000001           0.000         0.001       0.000
    7      141.669 ||    0.000021           0.000         0.021       0.008
    8      162.650 ||    0.000109           0.003         0.106       0.039
    9      167.187 ||    0.000101           0.002         0.099       0.036
   10      168.358 ||    0.000027           0.001         0.026       0.010
   11      185.642 ||    0.000008           0.000         0.008       0.003
   12      185.859 ||    0.000009           0.000         0.009       0.003
   13      233.410 ||    0.006628           0.153         6.462       2.377
   14      234.810 ||    0.006037           0.139         5.885       2.165
   15      236.132 ||    0.005834           0.135         5.687       2.092
   16      578.660 ||    0.000001           0.000         0.001       0.000
   17      684.054 ||    0.035990           0.830        35.085      12.905
   18      684.816 ||    0.037266           0.860        36.329      13.363
   19      685.401 ||    0.039074           0.901        38.091      14.011
   20      690.950 ||    0.000378           0.009         0.369       0.136
   21      692.126 ||    0.000591           0.014         0.576       0.212
   22      694.447 ||    0.000284           0.007         0.277       0.102
   23      828.832 ||    0.001608           0.037         1.568       0.577
   24      830.996 ||    0.000154           0.004         0.150       0.055
   25      861.747 ||    0.264214           6.096       257.569      94.743
   26      862.735 ||    0.259459           5.986       252.933      93.038
   27      865.610 ||    0.247233           5.704       241.015      88.654
   28     1272.069 ||    0.056974           1.314        55.542      20.430
   29     1273.745 ||    0.055195           1.273        53.807      19.792
   30     1274.904 ||    0.054421           1.256        53.052      19.515
   31     1276.842 ||    0.003446           0.079         3.359       1.236
   32     1444.108 ||    0.000294           0.007         0.286       0.105
   33     1444.604 ||    0.000067           0.002         0.065       0.024
   34     1446.596 ||    0.000164           0.004         0.160       0.059
   35     1446.840 ||    0.000212           0.005         0.207       0.076
   36     1447.970 ||    0.000086           0.002         0.084       0.031
   37     1455.160 ||    0.011218           0.259        10.936       4.023
   38     1455.772 ||    0.011315           0.261        11.031       4.058
   39     1457.360 ||    0.010294           0.238        10.036       3.691
   40     3018.403 ||    0.021909           0.505        21.358       7.856
   41     3018.535 ||    0.021935           0.506        21.383       7.865
   42     3018.855 ||    0.022345           0.516        21.783       8.013
   43     3022.219 ||    0.000003           0.000         0.003       0.001
   44     3087.090 ||    0.000995           0.023         0.970       0.357
   45     3087.328 ||    0.002721           0.063         2.653       0.976
   46     3088.567 ||    0.002858           0.066         2.786       1.025
   47     3088.885 ||    0.014226           0.328        13.868       5.101
   48     3089.091 ||    0.003773           0.087         3.678       1.353
   49     3089.299 ||    0.068709           1.585        66.981      24.638
   50     3089.917 ||    0.076199           1.758        74.283      27.324
   51     3090.195 ||    0.077845           1.796        75.887      27.914
 ----------------------------------------------------------------------------

         Total DFT energy =     -449.288138704348
      Atom:    1  Si
           isotropic =     327.8210
      Atom:    2  C
           isotropic =     184.5450
      Atom:    3  C
           isotropic =     184.5069
      Atom:    4  C
           isotropic =     184.5189
      Atom:    5  C
           isotropic =     184.5121
      Atom:    6  H
           isotropic =      31.7666
      Atom:    7  H
           isotropic =      31.7781
      Atom:    8  H
           isotropic =      31.7512
      Atom:    9  H
           isotropic =      31.7816
      Atom:   10  H
           isotropic =      31.7527
      Atom:   11  H
           isotropic =      31.7717
      Atom:   12  H
           isotropic =      31.7635
      Atom:   13  H
           isotropic =      31.7800
      Atom:   14  H
           isotropic =      31.7673
      Atom:   15  H
           isotropic =      31.7781
      Atom:   16  H
           isotropic =      31.7656
      Atom:   17  H
           isotropic =      31.7634
 Total times  cpu:    55271.3s     wall:    55657.3s
