============================== echo of input deck ==============================
echo

start molecule

memory total 40 gb
print low

title "Mustard gas, HD"
charge 0

geometry units angstroms print xyz autosym
  load format xyz HD_geom_6-31Gs-017_final.xyz
end

basis
  * library 6-311+G(2d,p)
end

dft
  grid huge
  xc b3lyp
  mult 1
  noprint "final vectors analysis"
end

driver
  clear
  tight
  linopt 0
  maxiter 90
end

property
  giao
  shielding
end

task dft optimize
task dft freq
task dft property

================================================================================

         Total DFT energy =    -1475.974407260153
@ Step       Energy      Delta E   Gmax     Grms     Xrms     Xmax   Walltime
@ ---- ---------------- -------- -------- -------- -------- -------- --------
@    0   -1475.97440726  0.0D+00  0.00303  0.00106  0.00000  0.00000    157.4
         Total DFT energy =    -1475.974542013431
@    1   -1475.97454201 -1.3D-04  0.00090  0.00021  0.00533  0.00987    266.5
         Total DFT energy =    -1475.974561093186
@    2   -1475.97456109 -1.9D-05  0.00049  0.00013  0.00289  0.00568    361.3
         Total DFT energy =    -1475.974568895825
@    3   -1475.97456890 -7.8D-06  0.00030  0.00008  0.00231  0.00428    443.0
         Total DFT energy =    -1475.974570671769
@    4   -1475.97457067 -1.8D-06  0.00017  0.00004  0.00078  0.00166    513.2
         Total DFT energy =    -1475.974570855724
@    5   -1475.97457086 -1.8D-07  0.00003  0.00001  0.00053  0.00117    581.6
         Total DFT energy =    -1475.974571023577
@    6   -1475.97457102 -1.7D-07  0.00002  0.00001  0.00025  0.00058    651.4
         Total DFT energy =    -1475.974571092006
@    7   -1475.97457109 -6.8D-08  0.00001  0.00000  0.00008  0.00016    721.1
         Total DFT energy =    -1475.974571097668
@    8   -1475.97457110 -5.7D-09  0.00000  0.00000  0.00008  0.00020    790.6
         Total DFT energy =    -1475.974571098244
@    9   -1475.97457110 -5.8D-10  0.00000  0.00000  0.00004  0.00008    859.7
         Total DFT energy =    -1475.974571101984
@   10   -1475.97457110 -3.7D-09  0.00000  0.00000  0.00006  0.00013    928.3
         Total DFT energy =    -1475.974571102234
@   11   -1475.97457110 -2.5D-10  0.00000  0.00000  0.00004  0.00007    998.5
         Total DFT energy =    -1475.974571103650
@   12   -1475.97457110 -1.4D-09  0.00000  0.00000  0.00004  0.00007   1067.4
         Total DFT energy =    -1475.974571083491
@   13   -1475.97457108  2.0D-08  0.00000  0.00000  0.00003  0.00007   1137.7
         Total DFT energy =    -1475.974571104919
@   14   -1475.97457110 -2.1D-08  0.00000  0.00000  0.00003  0.00007   1205.6
         Total DFT energy =    -1475.974571104968
@   15   -1475.97457110 -4.9D-11  0.00000  0.00000  0.00003  0.00006   1273.9
         Total DFT energy =    -1475.974571105801
@   16   -1475.97457111 -8.3D-10  0.00000  0.00000  0.00003  0.00006   1342.3
         Total DFT energy =    -1475.974571105909
@   17   -1475.97457111 -1.1D-10  0.00000  0.00000  0.00003  0.00006   1411.0
         Total DFT energy =    -1475.974571146462
@   18   -1475.97457115 -4.1D-08  0.00000  0.00000  0.00003  0.00006   1480.7
         Total DFT energy =    -1475.974571107245
@   19   -1475.97457111  3.9D-08  0.00000  0.00000  0.00003  0.00006   1550.1
@   19   -1475.97457111  3.9D-08  0.00000  0.00000  0.00003  0.00006   1550.1

 Output coordinates in angstroms (scale by  1.889725989 to convert to a.u.)

  No.       Tag          Charge          X              Y              Z
 ---- ---------------- ---------- -------------- -------------- --------------
    1 Cl                  17.0000    -4.10920037     0.00008215    -0.60806489
    2 Cl                  17.0000     4.10920037    -0.00008215    -0.60806489
    3 S                   16.0000     0.00000000     0.00000000     0.97280706
    4 C                    6.0000    -1.39509088    -0.00051665    -0.22957619
    5 C                    6.0000     1.39509088     0.00051665    -0.22957619
    6 C                    6.0000    -2.69878718     0.00122501     0.54154629
    7 C                    6.0000     2.69878718    -0.00122501     0.54154629
    8 H                    1.0000    -1.32544358    -0.88936999    -0.85688815
    9 H                    1.0000    -1.32428565     0.88683167    -0.85888979
   10 H                    1.0000     1.32544358     0.88936999    -0.85688815
   11 H                    1.0000     1.32428565    -0.88683167    -0.85888979
   12 H                    1.0000    -2.80954850    -0.88650708     1.15928072
   13 H                    1.0000    -2.80874259     0.89091998     1.15658315
   14 H                    1.0000     2.80954850     0.88650708     1.15928072
   15 H                    1.0000     2.80874259    -0.89091998     1.15658315

         Total DFT energy =    -1475.974570633194
 Zero-Point correction to Energy  =   72.454 kcal/mol  (  0.115462 au)
 Thermal correction to Energy     =   78.434 kcal/mol  (  0.124992 au)
 Thermal correction to Enthalpy   =   79.026 kcal/mol  (  0.125936 au)
 Total Entropy                    =  100.774 cal/mol-K
   - Translational                =   41.063 cal/mol-K (mol. weight = 157.9724)
   - Rotational                   =   29.056 cal/mol-K (symmetry #  =        2)
   - Vibrational                  =   30.655 cal/mol-K
   - Translational                  =    2.979 cal/mol-K
   - Rotational                     =    2.979 cal/mol-K
   - Vibrational                    =   24.395 cal/mol-K
 P.Frequency       -0.00       -0.00        0.00        0.00        0.00        0.00
 P.Frequency       30.66       49.72       60.11      104.37      109.61      201.90
 P.Frequency      211.82      322.15      328.14      688.74      702.77      749.68
 P.Frequency      773.13      778.35      785.06      967.96      990.46     1032.01
 P.Frequency     1064.64     1131.43     1136.53     1224.95     1253.54     1294.28
 P.Frequency     1297.45     1318.35     1333.42     1487.46     1493.97     1494.63
 P.Frequency     1495.30     3052.08     3053.71     3090.33     3090.51     3100.81
 P.Frequency     3105.37     3149.95     3150.93

 Normal Eigenvalue ||           Projected Infra Red Intensities
  Mode   [cm**-1]  || [atomic units] [(debye/angs)**2] [(KM/mol)] [arbitrary]
 ------ ---------- || -------------- ----------------- ---------- -----------
    1       -0.000 ||    0.000242           0.006         0.236       0.346
    2       -0.000 ||    0.000005           0.000         0.005       0.007
    3        0.000 ||    0.000003           0.000         0.003       0.005
    4        0.000 ||    0.000000           0.000         0.000       0.000
    5        0.000 ||    0.000021           0.000         0.021       0.030
    6        0.000 ||    0.000009           0.000         0.008       0.012
    7       30.656 ||    0.000000           0.000         0.000       0.000
    8       49.715 ||    0.000000           0.000         0.000       0.000
    9       60.108 ||    0.001036           0.024         1.010       1.482
   10      104.369 ||    0.010923           0.252        10.648      15.621
   11      109.610 ||    0.000000           0.000         0.000       0.000
   12      201.898 ||    0.008629           0.199         8.412      12.340
   13      211.817 ||    0.000067           0.002         0.065       0.096
   14      322.153 ||    0.000263           0.006         0.257       0.377
   15      328.138 ||    0.003627           0.084         3.536       5.187
   16      688.736 ||    0.019122           0.441        18.641      27.347
   17      702.773 ||    0.094507           2.180        92.130     135.153
   18      749.680 ||    0.007862           0.181         7.664      11.243
   19      773.126 ||    0.000000           0.000         0.000       0.000
   20      778.354 ||    0.003800           0.088         3.704       5.434
   21      785.064 ||    0.005892           0.136         5.744       8.426
   22      967.963 ||    0.000000           0.000         0.000       0.000
   23      990.457 ||    0.000070           0.002         0.068       0.100
   24     1032.007 ||    0.017027           0.393        16.599      24.350
   25     1064.644 ||    0.001204           0.028         1.174       1.722
   26     1131.431 ||    0.000000           0.000         0.000       0.000
   27     1136.527 ||    0.002108           0.049         2.055       3.014
   28     1224.953 ||    0.032153           0.742        31.344      45.981
   29     1253.538 ||    0.025805           0.595        25.156      36.903
   30     1294.277 ||    0.000000           0.000         0.000       0.000
   31     1297.451 ||    0.000953           0.022         0.929       1.363
   32     1318.349 ||    0.008639           0.199         8.422      12.354
   33     1333.420 ||    0.003041           0.070         2.964       4.348
   34     1487.457 ||    0.008065           0.186         7.862      11.534
   35     1493.975 ||    0.000890           0.021         0.868       1.273
   36     1494.634 ||    0.004083           0.094         3.980       5.839
   37     1495.299 ||    0.005371           0.124         5.236       7.681
   38     3052.076 ||    0.016663           0.384        16.244      23.830
   39     3053.710 ||    0.001991           0.046         1.940       2.847
   40     3090.328 ||    0.018585           0.429        18.117      26.578
   41     3090.508 ||    0.000850           0.020         0.828       1.215
   42     3100.810 ||    0.005871           0.135         5.723       8.396
   43     3105.367 ||    0.000000           0.000         0.000       0.000
   44     3149.950 ||    0.005291           0.122         5.158       7.566
   45     3150.931 ||    0.000000           0.000         0.000       0.000
 ----------------------------------------------------------------------------

         Total DFT energy =    -1475.974570633271
      Atom:    1  Cl
           isotropic =     795.4047
      Atom:    2  Cl
           isotropic =     795.4047
      Atom:    3  S
           isotropic =     470.0901
      Atom:    4  C
           isotropic =     138.4968
      Atom:    5  C
           isotropic =     138.4968
      Atom:    6  C
           isotropic =     131.9777
      Atom:    7  C
           isotropic =     131.9777
      Atom:    8  H
           isotropic =      28.8776
      Atom:    9  H
           isotropic =      28.8800
      Atom:   10  H
           isotropic =      28.8776
      Atom:   11  H
           isotropic =      28.8800
      Atom:   12  H
           isotropic =      28.2765
      Atom:   13  H
           isotropic =      28.2752
      Atom:   14  H
           isotropic =      28.2765
      Atom:   15  H
           isotropic =      28.2752
 Total times  cpu:    14203.2s     wall:    14235.3s
