============================== echo of input deck ==============================
echo

start molecule

# https://nwchemgit.github.io/Memory.html
memory total 40 gb

print low

title "VX"
charge 0

geometry units angstroms print xyz autosym
#  load format xyz VX_geom_ccpvdz-034-again.xyz
#  load format xyz VX.coord_freq_blyp_tz2p.xyz
 # load format xyz VX_geom-031_start.xyz
  load format xyz VX_geom-049_final.xyz
end

basis
  * library 6-31G*
end

dft
  #grid fine
  grid huge
  xc b3lyp
  mult 1
# Reduce output during geometry optimization
  noprint "final vectors analysis"
end

driver
  clear
  tight
  linopt 0
  maxiter 9999
  xyz VX_geom
end

task dft optimize
task dft freq

================================================================================

         Total DFT energy =    -1379.631164896864
@ Step       Energy      Delta E   Gmax     Grms     Xrms     Xmax   Walltime
@ ---- ---------------- -------- -------- -------- -------- -------- --------
@    0   -1379.63116490  0.0D+00  0.00001  0.00000  0.00000  0.00000    709.6
         Total DFT energy =    -1379.631164919600
@    1   -1379.63116492 -2.3D-08  0.00000  0.00000  0.00003  0.00010   1103.9
         Total DFT energy =    -1379.631164921548
@    2   -1379.63116492 -1.9D-09  0.00000  0.00000  0.00009  0.00026   1498.0
         Total DFT energy =    -1379.631164917791
@    3   -1379.63116492  3.8D-09  0.00000  0.00000  0.00012  0.00033   1895.1
         Total DFT energy =    -1379.631164906398
@    4   -1379.63116491  1.1D-08  0.00001  0.00000  0.00027  0.00070   2285.3
         Total DFT energy =    -1379.631164855950
@    5   -1379.63116486  5.0D-08  0.00002  0.00000  0.00049  0.00133   2674.3
         Total DFT energy =    -1379.631164719821
@    6   -1379.63116472  1.4D-07  0.00001  0.00000  0.00030  0.00077   3067.6
         Total DFT energy =    -1379.631164911830
@    7   -1379.63116491 -1.9D-07  0.00001  0.00000  0.00012  0.00031   3461.2
         Total DFT energy =    -1379.631164919736
@    8   -1379.63116492 -7.9D-09  0.00000  0.00000  0.00010  0.00030   3856.6
         Total DFT energy =    -1379.631164914543
@    9   -1379.63116491  5.2D-09  0.00001  0.00000  0.00005  0.00014   4249.4
         Total DFT energy =    -1379.631164924153
@   10   -1379.63116492 -9.6D-09  0.00000  0.00000  0.00006  0.00017   4639.1
         Total DFT energy =    -1379.631164924460
@   11   -1379.63116492 -3.1D-10  0.00000  0.00000  0.00003  0.00008   5029.7
         Total DFT energy =    -1379.631164924039
@   12   -1379.63116492  4.2D-10  0.00000  0.00000  0.00003  0.00009   5423.8
         Total DFT energy =    -1379.631164922737
@   13   -1379.63116492  1.3D-09  0.00000  0.00000  0.00005  0.00013   5816.5
         Total DFT energy =    -1379.631164919774
@   14   -1379.63116492  3.0D-09  0.00001  0.00000  0.00007  0.00019   6207.1
         Total DFT energy =    -1379.631164918747
@   15   -1379.63116492  1.0D-09  0.00001  0.00000  0.00011  0.00028   6599.6
         Total DFT energy =    -1379.631164909992
@   16   -1379.63116491  8.8D-09  0.00002  0.00000  0.00016  0.00043   6996.6
         Total DFT energy =    -1379.631164894253
@   17   -1379.63116489  1.6D-08  0.00002  0.00000  0.00024  0.00061   7392.7
         Total DFT energy =    -1379.631164880301
@   18   -1379.63116488  1.4D-08  0.00001  0.00000  0.00014  0.00037   7783.8
         Total DFT energy =    -1379.631164922200
@   19   -1379.63116492 -4.2D-08  0.00001  0.00000  0.00007  0.00021   8168.1
         Total DFT energy =    -1379.631164920633
@   20   -1379.63116492  1.6D-09  0.00000  0.00000  0.00005  0.00014   8561.2
         Total DFT energy =    -1379.631164924969
@   21   -1379.63116492 -4.3D-09  0.00000  0.00000  0.00005  0.00014   8953.2
         Total DFT energy =    -1379.631164921874
@   22   -1379.63116492  3.1D-09  0.00000  0.00000  0.00005  0.00015   9345.2
         Total DFT energy =    -1379.631164923031
@   23   -1379.63116492 -1.2D-09  0.00000  0.00000  0.00007  0.00017   9735.5
         Total DFT energy =    -1379.631164922149
@   24   -1379.63116492  8.8D-10  0.00000  0.00000  0.00008  0.00020  10129.1
         Total DFT energy =    -1379.631164921897
@   25   -1379.63116492  2.5D-10  0.00000  0.00000  0.00009  0.00024  10519.3
         Total DFT energy =    -1379.631164918643
@   26   -1379.63116492  3.3D-09  0.00000  0.00000  0.00011  0.00028  10914.9
         Total DFT energy =    -1379.631164919967
@   27   -1379.63116492 -1.3D-09  0.00000  0.00000  0.00013  0.00033  11304.5
         Total DFT energy =    -1379.631164910572
@   28   -1379.63116491  9.4D-09  0.00000  0.00000  0.00015  0.00039  11694.7
         Total DFT energy =    -1379.631164916387
@   29   -1379.63116492 -5.8D-09  0.00000  0.00000  0.00019  0.00046  12088.9
         Total DFT energy =    -1379.631164894824
@   30   -1379.63116489  2.2D-08  0.00000  0.00000  0.00022  0.00055  12479.3
         Total DFT energy =    -1379.631164907840
@   31   -1379.63116491 -1.3D-08  0.00001  0.00000  0.00027  0.00066  12873.9
         Total DFT energy =    -1379.631164871063
@   32   -1379.63116487  3.7D-08  0.00001  0.00000  0.00014  0.00035  13263.4
         Total DFT energy =    -1379.631164923924
@   33   -1379.63116492 -5.3D-08  0.00000  0.00000  0.00007  0.00018  13651.4
         Total DFT energy =    -1379.631164922475
@   34   -1379.63116492  1.4D-09  0.00000  0.00000  0.00004  0.00010  14047.9
         Total DFT energy =    -1379.631164924530
@   35   -1379.63116492 -2.1D-09  0.00000  0.00000  0.00002  0.00004  14440.3
@   35   -1379.63116492 -2.1D-09  0.00000  0.00000  0.00002  0.00004  14440.3

 Output coordinates in angstroms (scale by  1.889725989 to convert to a.u.)

  No.       Tag          Charge          X              Y              Z
 ---- ---------------- ---------- -------------- -------------- --------------
    1 P                   15.0000     0.16336432    -2.22863806     0.65287240
    2 O                    8.0000     1.42031139    -1.51776933     0.26951183
    3 S                   16.0000    -1.57426477    -1.30152883    -0.16019404
    4 O                    8.0000     0.03875906    -3.78253868     0.19762099
    5 C                    6.0000    -0.12558905    -2.43783906     2.43483992
    6 H                    1.0000     0.69223412    -3.02993235     2.85644075
    7 H                    1.0000    -0.14598097    -1.45440070     2.91083600
    8 H                    1.0000    -1.07564601    -2.94825877     2.61333993
    9 C                    6.0000     0.32553836    -4.15801760    -1.17295674
   10 C                    6.0000     0.24458500    -5.67017038    -1.26672783
   11 H                    1.0000     1.32207031    -3.78959670    -1.43708082
   12 H                    1.0000    -0.40968985    -3.67726306    -1.82893545
   13 H                    1.0000     0.45333590    -5.99070064    -2.29352239
   14 H                    1.0000     0.97611859    -6.13989011    -0.60169485
   15 H                    1.0000    -0.75369408    -6.02358626    -0.98978536
   16 C                    6.0000    -0.81722264     0.26140985    -0.81217421
   17 C                    6.0000    -0.67533706     1.36345631     0.24819195
   18 H                    1.0000    -1.47802343     0.58906587    -1.61953052
   19 H                    1.0000     0.15175340     0.00114654    -1.24012576
   20 H                    1.0000    -1.67438517     1.64898236     0.59014697
   21 H                    1.0000    -0.15077371     0.95421011     1.12708747
   22 N                    7.0000     0.01198506     2.51723446    -0.31133510
   23 C                    6.0000     1.48376423     2.42997018    -0.26816839
   24 C                    6.0000     2.13243639     2.96332123     1.02521198
   25 C                    6.0000     2.12009216     3.07055141    -1.51090930
   26 H                    1.0000     1.70708247     1.35737935    -0.31266489
   27 H                    1.0000     1.69114852     2.49747770     1.91356739
   28 H                    1.0000     3.20580735     2.73964216     1.03197211
   29 H                    1.0000     2.02144061     4.05036025     1.11647751
   30 H                    1.0000     1.68487112     2.64972453    -2.42288549
   31 H                    1.0000     1.97287275     4.15722609    -1.53470086
   32 H                    1.0000     3.20109893     2.88891651    -1.52364845
   33 C                    6.0000    -0.62164858     3.83473885    -0.14558277
   34 C                    6.0000    -1.03510892     4.20423242     1.29622286
   35 C                    6.0000    -1.81827573     3.97714493    -1.10111763
   36 H                    1.0000     0.12991239     4.56669273    -0.46252578
   37 H                    1.0000    -0.19511480     4.12719484     1.99207633
   38 H                    1.0000    -1.40816731     5.23505109     1.32920972
   39 H                    1.0000    -1.84013127     3.55789362     1.66539568
   40 H                    1.0000    -1.50734936     3.78987203    -2.13358387
   41 H                    1.0000    -2.61309580     3.26272575    -0.85204171
   42 H                    1.0000    -2.25186401     4.98274914    -1.04124730

         Total DFT energy =    -1379.631164800776
 Zero-Point correction to Energy  =  232.637 kcal/mol  (  0.370731 au)
 Thermal correction to Energy     =  246.522 kcal/mol  (  0.392857 au)
 Thermal correction to Enthalpy   =  247.114 kcal/mol  (  0.393801 au)
 Total Entropy                    =  161.105 cal/mol-K
   - Translational                =   42.628 cal/mol-K (mol. weight = 267.1422)
   - Rotational                   =   33.826 cal/mol-K (symmetry #  =        1)
   - Vibrational                  =   84.652 cal/mol-K
   - Translational                  =    2.979 cal/mol-K
   - Rotational                     =    2.979 cal/mol-K
   - Vibrational                    =   73.131 cal/mol-K
 P.Frequency       -0.00        0.00        0.00        0.00        0.00        0.00
 P.Frequency       17.70       20.12       29.40       38.17       59.78       63.67
 P.Frequency       82.00       91.50      121.81      133.87      174.40      185.83
 P.Frequency      201.78      204.90      216.11      232.16      241.82      252.77
 P.Frequency      257.36      266.41      279.16      290.21      299.72      306.48
 P.Frequency      339.44      356.18      377.90      393.56      406.61      452.67
 P.Frequency      494.62      514.91      532.47      566.45      691.39      731.72
 P.Frequency      741.55      762.90      774.56      826.99      850.83      898.70
 P.Frequency      920.90      929.20      930.96      935.19      943.86      950.93
 P.Frequency      963.14      992.73     1041.37     1068.55     1075.30     1085.16
 P.Frequency     1134.68     1139.21     1146.46     1166.41     1193.13     1193.88
 P.Frequency     1198.73     1236.43     1248.85     1271.55     1301.58     1317.82
 P.Frequency     1353.65     1357.08     1366.10     1375.17     1409.98     1417.30
 P.Frequency     1421.37     1423.46     1425.61     1438.65     1444.28     1447.23
 P.Frequency     1459.70     1485.74     1486.54     1488.76     1510.74     1514.01
 P.Frequency     1514.57     1515.28     1522.42     1525.08     1530.28     1532.04
 P.Frequency     1533.36     1538.91     1541.05     1550.59     2989.08     3041.50
 P.Frequency     3041.90     3046.79     3050.86     3059.36     3060.62     3061.11
 P.Frequency     3064.66     3073.13     3099.54     3100.93     3103.55     3104.35
 P.Frequency     3107.07     3112.77     3113.84     3115.97     3127.76     3128.95
 P.Frequency     3131.21     3140.03     3142.35     3160.65     3167.63     3168.57

 Normal Eigenvalue ||           Projected Infra Red Intensities
  Mode   [cm**-1]  || [atomic units] [(debye/angs)**2] [(KM/mol)] [arbitrary]
 ------ ---------- || -------------- ----------------- ---------- -----------
    1       -0.000 ||    0.000001           0.000         0.001       0.001
    2        0.000 ||    0.000008           0.000         0.008       0.005
    3        0.000 ||    0.000015           0.000         0.015       0.008
    4        0.000 ||    0.000007           0.000         0.006       0.004
    5        0.000 ||    0.000005           0.000         0.005       0.003
    6        0.000 ||    0.000014           0.000         0.014       0.008
    7       17.703 ||    0.000684           0.016         0.667       0.385
    8       20.122 ||    0.000084           0.002         0.082       0.047
    9       29.404 ||    0.000348           0.008         0.339       0.195
   10       38.172 ||    0.000244           0.006         0.237       0.137
   11       59.785 ||    0.000076           0.002         0.074       0.043
   12       63.672 ||    0.000078           0.002         0.076       0.044
   13       81.997 ||    0.001640           0.038         1.599       0.922
   14       91.497 ||    0.001582           0.036         1.542       0.889
   15      121.806 ||    0.002276           0.053         2.219       1.279
   16      133.868 ||    0.006262           0.144         6.105       3.520
   17      174.398 ||    0.000865           0.020         0.844       0.486
   18      185.825 ||    0.000763           0.018         0.744       0.429
   19      201.777 ||    0.002203           0.051         2.148       1.238
   20      204.899 ||    0.002749           0.063         2.680       1.545
   21      216.106 ||    0.001845           0.043         1.799       1.037
   22      232.158 ||    0.000007           0.000         0.007       0.004
   23      241.818 ||    0.000287           0.007         0.280       0.161
   24      252.766 ||    0.000717           0.017         0.699       0.403
   25      257.364 ||    0.000719           0.017         0.701       0.404
   26      266.406 ||    0.003440           0.079         3.353       1.933
   27      279.160 ||    0.006052           0.140         5.900       3.401
   28      290.214 ||    0.000294           0.007         0.287       0.165
   29      299.723 ||    0.002148           0.050         2.094       1.207
   30      306.479 ||    0.000544           0.013         0.530       0.306
   31      339.438 ||    0.000171           0.004         0.167       0.096
   32      356.178 ||    0.007688           0.177         7.495       4.321
   33      377.898 ||    0.004806           0.111         4.685       2.701
   34      393.555 ||    0.000644           0.015         0.628       0.362
   35      406.607 ||    0.000205           0.005         0.199       0.115
   36      452.669 ||    0.023678           0.546        23.082      13.308
   37      494.625 ||    0.007335           0.169         7.150       4.123
   38      514.910 ||    0.111336           2.569       108.536      62.577
   39      532.471 ||    0.011661           0.269        11.367       6.554
   40      566.454 ||    0.007193           0.166         7.013       4.043
   41      691.395 ||    0.037120           0.856        36.187      20.863
   42      731.720 ||    0.016402           0.378        15.990       9.219
   43      741.548 ||    0.088394           2.039        86.171      49.682
   44      762.897 ||    0.007437           0.172         7.250       4.180
   45      774.556 ||    0.042500           0.981        41.431      23.887
   46      826.988 ||    0.000751           0.017         0.732       0.422
   47      850.834 ||    0.000203           0.005         0.198       0.114
   48      898.700 ||    0.004152           0.096         4.047       2.334
   49      920.896 ||    0.038608           0.891        37.637      21.700
   50      929.201 ||    0.000524           0.012         0.511       0.295
   51      930.960 ||    0.000505           0.012         0.493       0.284
   52      935.189 ||    0.108997           2.515       106.255      61.262
   53      943.862 ||    0.000393           0.009         0.383       0.221
   54      950.925 ||    0.000465           0.011         0.454       0.261
   55      963.143 ||    0.181500           4.187       176.935     102.012
   56      992.728 ||    0.017124           0.395        16.694       9.625
   57     1041.366 ||    0.003773           0.087         3.678       2.121
   58     1068.546 ||    0.252421           5.824       246.073     141.873
   59     1075.300 ||    0.027900           0.644        27.198      15.681
   60     1085.158 ||    0.033564           0.774        32.720      18.865
   61     1134.678 ||    0.012443           0.287        12.130       6.994
   62     1139.207 ||    0.004400           0.102         4.290       2.473
   63     1146.461 ||    0.017499           0.404        17.059       9.835
   64     1166.410 ||    0.015266           0.352        14.882       8.580
   65     1193.130 ||    0.005372           0.124         5.237       3.019
   66     1193.876 ||    0.058053           1.339        56.593      32.629
   67     1198.726 ||    0.038278           0.883        37.315      21.514
   68     1236.428 ||    0.109802           2.533       107.040      61.714
   69     1248.852 ||    0.063109           1.456        61.521      35.470
   70     1271.551 ||    0.038321           0.884        37.358      21.539
   71     1301.582 ||    0.041870           0.966        40.817      23.533
   72     1317.822 ||    0.000354           0.008         0.345       0.199
   73     1353.651 ||    0.006570           0.152         6.404       3.693
   74     1357.079 ||    0.005695           0.131         5.552       3.201
   75     1366.095 ||    0.027033           0.624        26.354      15.194
   76     1375.175 ||    0.004311           0.099         4.203       2.423
   77     1409.984 ||    0.005022           0.116         4.896       2.823
   78     1417.300 ||    0.005785           0.133         5.639       3.251
   79     1421.370 ||    0.001679           0.039         1.637       0.944
   80     1423.461 ||    0.007422           0.171         7.235       4.171
   81     1425.609 ||    0.016556           0.382        16.140       9.305
   82     1438.650 ||    0.007347           0.169         7.162       4.129
   83     1444.280 ||    0.010391           0.240        10.130       5.840
   84     1447.232 ||    0.015324           0.354        14.938       8.613
   85     1459.700 ||    0.020717           0.478        20.196      11.644
   86     1485.738 ||    0.004793           0.111         4.672       2.694
   87     1486.538 ||    0.007408           0.171         7.222       4.164
   88     1488.761 ||    0.005530           0.128         5.391       3.108
   89     1510.739 ||    0.000693           0.016         0.676       0.390
   90     1514.009 ||    0.000595           0.014         0.580       0.335
   91     1514.574 ||    0.005850           0.135         5.703       3.288
   92     1515.280 ||    0.000836           0.019         0.815       0.470
   93     1522.421 ||    0.002993           0.069         2.918       1.682
   94     1525.076 ||    0.000908           0.021         0.885       0.510
   95     1530.275 ||    0.002486           0.057         2.423       1.397
   96     1532.040 ||    0.008591           0.198         8.375       4.829
   97     1533.361 ||    0.001644           0.038         1.602       0.924
   98     1538.913 ||    0.003348           0.077         3.263       1.882
   99     1541.054 ||    0.002313           0.053         2.254       1.300
  100     1550.588 ||    0.002344           0.054         2.285       1.317
  101     2989.079 ||    0.041174           0.950        40.138      23.142
  102     3041.505 ||    0.004018           0.093         3.917       2.259
  103     3041.901 ||    0.034702           0.801        33.829      19.504
  104     3046.794 ||    0.013894           0.321        13.545       7.809
  105     3050.859 ||    0.022622           0.522        22.053      12.715
  106     3059.357 ||    0.017658           0.407        17.214       9.925
  107     3060.624 ||    0.020669           0.477        20.149      11.617
  108     3061.106 ||    0.005479           0.126         5.341       3.079
  109     3064.656 ||    0.016911           0.390        16.486       9.505
  110     3073.130 ||    0.000510           0.012         0.498       0.287
  111     3099.539 ||    0.008453           0.195         8.241       4.751
  112     3100.932 ||    0.001246           0.029         1.215       0.700
  113     3103.552 ||    0.027781           0.641        27.082      15.614
  114     3104.352 ||    0.013796           0.318        13.449       7.754
  115     3107.067 ||    0.005260           0.121         5.128       2.956
  116     3112.772 ||    0.073093           1.686        71.255      41.082
  117     3113.835 ||    0.024184           0.558        23.576      13.593
  118     3115.975 ||    0.094778           2.187        92.394      53.270
  119     3127.764 ||    0.027742           0.640        27.044      15.592
  120     3128.949 ||    0.036581           0.844        35.661      20.560
  121     3131.208 ||    0.024428           0.564        23.813      13.730
  122     3140.035 ||    0.025918           0.598        25.267      14.567
  123     3142.351 ||    0.030939           0.714        30.161      17.389
  124     3160.650 ||    0.002302           0.053         2.245       1.294
  125     3167.629 ||    0.002425           0.056         2.364       1.363
  126     3168.565 ||    0.002866           0.066         2.794       1.611
 ----------------------------------------------------------------------------

 Total times  cpu:    43049.0s     wall:    43164.6s
