============================== echo of input deck ==============================
echo

start molecule

# https://nwchemgit.github.io/Memory.html
memory total 40 gb

print low

title "VX"
charge 0

geometry units angstroms print xyz autosym
#  load format xyz VX_geom_ccpvdz-034-again.xyz
#  load format xyz VX.coord_freq_blyp_tz2p.xyz
  load format xyz VX_geom-031_start.xyz
end

basis
  * library 6-31G*
end

dft
  #grid fine
  grid huge
  xc b3lyp
  mult 1
# Reduce output during geometry optimization
  noprint "final vectors analysis"
end

driver
  clear
  tight
  linopt 0
  maxiter 50
  xyz VX_geom
end

task dft optimize
task dft freq

================================================================================

         Total DFT energy =    -1379.631164851655
@ Step       Energy      Delta E   Gmax     Grms     Xrms     Xmax   Walltime
@ ---- ---------------- -------- -------- -------- -------- -------- --------
@    0   -1379.63116485  0.0D+00  0.00002  0.00000  0.00000  0.00000   1195.5
         Total DFT energy =    -1379.631164881597
@    1   -1379.63116488 -3.0D-08  0.00001  0.00000  0.00023  0.00066   1768.7
         Total DFT energy =    -1379.631164867373
@    2   -1379.63116487  1.4D-08  0.00001  0.00000  0.00010  0.00030   2346.2
         Total DFT energy =    -1379.631164894795
@    3   -1379.63116489 -2.7D-08  0.00001  0.00000  0.00039  0.00094   2921.5
         Total DFT energy =    -1379.631164867895
@    4   -1379.63116487  2.7D-08  0.00001  0.00000  0.00011  0.00036   3495.9
         Total DFT energy =    -1379.631164898283
@    5   -1379.63116490 -3.0D-08  0.00001  0.00000  0.00029  0.00071   4071.4
         Total DFT energy =    -1379.631164857727
@    6   -1379.63116486  4.1D-08  0.00001  0.00000  0.00020  0.00059   4645.7
         Total DFT energy =    -1379.631164896914
@    7   -1379.63116490 -3.9D-08  0.00002  0.00000  0.00048  0.00126   5221.7
         Total DFT energy =    -1379.631164749037
@    8   -1379.63116475  1.5D-07  0.00001  0.00000  0.00018  0.00051   5799.3
         Total DFT energy =    -1379.631164912572
@    9   -1379.63116491 -1.6D-07  0.00000  0.00000  0.00024  0.00064   6377.9
         Total DFT energy =    -1379.631164878376
@   10   -1379.63116488  3.4D-08  0.00000  0.00000  0.00013  0.00035   6959.5
         Total DFT energy =    -1379.631164914670
@   11   -1379.63116491 -3.6D-08  0.00001  0.00000  0.00024  0.00072   7527.2
         Total DFT energy =    -1379.631164862697
@   12   -1379.63116486  5.2D-08  0.00001  0.00000  0.00021  0.00063   8098.8
         Total DFT energy =    -1379.631164904159
@   13   -1379.63116490 -4.1D-08  0.00001  0.00000  0.00040  0.00129   8669.5
         Total DFT energy =    -1379.631164746824
@   14   -1379.63116475  1.6D-07  0.00001  0.00000  0.00019  0.00060   9252.4
         Total DFT energy =    -1379.631164918522
@   15   -1379.63116492 -1.7D-07  0.00000  0.00000  0.00013  0.00047   9825.5
         Total DFT energy =    -1379.631164904388
@   16   -1379.63116490  1.4D-08  0.00000  0.00000  0.00011  0.00034  10404.0
         Total DFT energy =    -1379.631164917476
@   17   -1379.63116492 -1.3D-08  0.00000  0.00000  0.00010  0.00034  10981.6
         Total DFT energy =    -1379.631164917378
@   18   -1379.63116492  9.8D-11  0.00001  0.00000  0.00013  0.00036  11559.5
         Total DFT energy =    -1379.631164909328
@   19   -1379.63116491  8.1D-09  0.00000  0.00000  0.00014  0.00036  12134.6
         Total DFT energy =    -1379.631164915597
@   20   -1379.63116492 -6.3D-09  0.00001  0.00000  0.00020  0.00055  12703.3
         Total DFT energy =    -1379.631164885478
@   21   -1379.63116489  3.0D-08  0.00001  0.00000  0.00021  0.00062  13282.6
         Total DFT energy =    -1379.631164907513
@   22   -1379.63116491 -2.2D-08  0.00002  0.00000  0.00030  0.00088  13854.5
         Total DFT energy =    -1379.631164843752
@   23   -1379.63116484  6.4D-08  0.00001  0.00000  0.00015  0.00044  14431.8
         Total DFT energy =    -1379.631164919643
@   24   -1379.63116492 -7.6D-08  0.00000  0.00000  0.00010  0.00030  14999.9
         Total DFT energy =    -1379.631164915980
@   25   -1379.63116492  3.7D-09  0.00000  0.00000  0.00005  0.00014  15571.6
         Total DFT energy =    -1379.631164921613
@   26   -1379.63116492 -5.6D-09  0.00000  0.00000  0.00004  0.00013  16148.0
         Total DFT energy =    -1379.631164921552
@   27   -1379.63116492  6.1D-11  0.00000  0.00000  0.00003  0.00008  16727.4
         Total DFT energy =    -1379.631164921647
@   28   -1379.63116492 -9.5D-11  0.00000  0.00000  0.00003  0.00007  17312.1
         Total DFT energy =    -1379.631164923226
@   29   -1379.63116492 -1.6D-09  0.00000  0.00000  0.00004  0.00009  17885.9
         Total DFT energy =    -1379.631164920364
@   30   -1379.63116492  2.9D-09  0.00000  0.00000  0.00003  0.00010  18462.6
         Total DFT energy =    -1379.631164922488
@   31   -1379.63116492 -2.1D-09  0.00000  0.00000  0.00005  0.00012  19042.0
         Total DFT energy =    -1379.631164921920
@   32   -1379.63116492  5.7D-10  0.00000  0.00000  0.00004  0.00012  19614.2
         Total DFT energy =    -1379.631164920922
@   33   -1379.63116492  1.0D-09  0.00000  0.00000  0.00006  0.00016  20196.3
         Total DFT energy =    -1379.631164921695
@   34   -1379.63116492 -7.7D-10  0.00000  0.00000  0.00006  0.00016  20770.5
         Total DFT energy =    -1379.631164927163
@   35   -1379.63116493 -5.5D-09  0.00000  0.00000  0.00008  0.00021  21351.2
         Total DFT energy =    -1379.631164920648
@   36   -1379.63116492  6.5D-09  0.00000  0.00000  0.00008  0.00022  21924.3
         Total DFT energy =    -1379.631164919261
@   37   -1379.63116492  1.4D-09  0.00000  0.00000  0.00011  0.00027  22507.8
         Total DFT energy =    -1379.631164919454
@   38   -1379.63116492 -1.9D-10  0.00000  0.00000  0.00011  0.00030  23077.8
         Total DFT energy =    -1379.631164916014
@   39   -1379.63116492  3.4D-09  0.00000  0.00000  0.00014  0.00037  23647.9
         Total DFT energy =    -1379.631164910464
@   40   -1379.63116491  5.6D-09  0.00000  0.00000  0.00016  0.00042  24222.2
         Total DFT energy =    -1379.631164909416
@   41   -1379.63116491  1.0D-09  0.00001  0.00000  0.00019  0.00050  24794.3
         Total DFT energy =    -1379.631164905280
@   42   -1379.63116491  4.1D-09  0.00001  0.00000  0.00022  0.00058  25372.2
         Total DFT energy =    -1379.631164894196
@   43   -1379.63116489  1.1D-08  0.00001  0.00000  0.00027  0.00069  25948.1
         Total DFT energy =    -1379.631164887518
@   44   -1379.63116489  6.7D-09  0.00001  0.00000  0.00014  0.00037  26527.9
         Total DFT energy =    -1379.631164920384
@   45   -1379.63116492 -3.3D-08  0.00000  0.00000  0.00007  0.00021  27103.8
         Total DFT energy =    -1379.631164921154
@   46   -1379.63116492 -7.7D-10  0.00000  0.00000  0.00004  0.00013  27676.1
         Total DFT energy =    -1379.631164923692
@   47   -1379.63116492 -2.5D-09  0.00000  0.00000  0.00003  0.00008  28252.3
         Total DFT energy =    -1379.631164922463
@   48   -1379.63116492  1.2D-09  0.00000  0.00000  0.00002  0.00007  28826.4
         Total DFT energy =    -1379.631164922448
@   49   -1379.63116492  1.5D-11  0.00000  0.00000  0.00002  0.00006  29405.5
@   49   -1379.63116492  1.5D-11  0.00000  0.00000  0.00002  0.00006  29405.5

 Output coordinates in angstroms (scale by  1.889725989 to convert to a.u.)

  No.       Tag          Charge          X              Y              Z
 ---- ---------------- ---------- -------------- -------------- --------------
    1 P                   15.0000     0.16292811    -2.22872109     0.65259923
    2 O                    8.0000     1.42020805    -1.51776053     0.27049982
    3 S                   16.0000    -1.57396518    -1.30161006    -0.16202952
    4 O                    8.0000     0.03883429    -3.78258665     0.19709408
    5 C                    6.0000    -0.12770775    -2.43809200     2.43427247
    6 H                    1.0000     0.68975339    -3.03016641     2.85660160
    7 H                    1.0000    -0.14861799    -1.45469530     2.91033193
    8 H                    1.0000    -1.07789990    -2.94858982     2.61182648
    9 C                    6.0000     0.32693879    -4.15793950    -1.17324008
   10 C                    6.0000     0.24645447    -5.67010932    -1.26714212
   11 H                    1.0000     1.32361398    -3.78925753    -1.43645835
   12 H                    1.0000    -0.40782375    -3.67734330    -1.82985599
   13 H                    1.0000     0.45616193    -5.99054456    -2.29377157
   14 H                    1.0000     0.97754119    -6.13966805    -0.60150469
   15 H                    1.0000    -0.75196962    -6.02379254    -0.99106496
   16 C                    6.0000    -0.81637420     0.26142561    -0.81314170
   17 C                    6.0000    -0.67545013     1.36333930     0.24749003
   18 H                    1.0000    -1.47646259     0.58916702    -1.62104593
   19 H                    1.0000     0.15299013     0.00123789    -1.24025983
   20 H                    1.0000    -1.67479866     1.64875002     0.58866255
   21 H                    1.0000    -0.15158231     0.95400374     1.12675680
   22 N                    7.0000     0.01227059     2.51723802    -0.31129867
   23 C                    6.0000     1.48401640     2.43010396    -0.26684198
   24 C                    6.0000     2.13149448     2.96337229     1.02717070
   25 C                    6.0000     2.12138824     3.07087692    -1.50894920
   26 H                    1.0000     1.70746847     1.35753730    -0.31125923
   27 H                    1.0000     1.68946846     2.49738346     1.91508290
   28 H                    1.0000     3.20488185     2.73980110     1.03485304
   29 H                    1.0000     2.02030768     4.05038978     1.11846091
   30 H                    1.0000     1.68699372     2.65013065    -2.42135670
   31 H                    1.0000     1.97411898     4.15754485    -1.53273871
   32 H                    1.0000     3.20241776     2.88931478    -1.52076370
   33 C                    6.0000    -0.62163538     3.83466786    -0.14601476
   34 C                    6.0000    -1.03639510     4.20401956     1.29545446
   35 C                    6.0000    -1.81743744     3.97702752    -1.10258885
   36 H                    1.0000     0.13013397     4.56671595    -0.46224571
   37 H                    1.0000    -0.19700008     4.12702055     1.99203503
   38 H                    1.0000    -1.40959044     5.23479684     1.32818798
   39 H                    1.0000    -1.84167137     3.55757069     1.66387994
   40 H                    1.0000    -1.50558834     3.78985957    -2.13479600
   41 H                    1.0000    -2.61240691     3.26251413    -0.85426103
   42 H                    1.0000    -2.25117416     4.98258581    -1.04302609

         Total DFT energy =    -1379.631164799013
 Zero-Point correction to Energy  =  232.637 kcal/mol  (  0.370731 au)
 Thermal correction to Energy     =  246.522 kcal/mol  (  0.392857 au)
 Thermal correction to Enthalpy   =  247.114 kcal/mol  (  0.393801 au)
 Total Entropy                    =  161.106 cal/mol-K
   - Translational                =   42.628 cal/mol-K (mol. weight = 267.1422)
   - Rotational                   =   33.826 cal/mol-K (symmetry #  =        1)
   - Vibrational                  =   84.653 cal/mol-K
   - Translational                  =    2.979 cal/mol-K
   - Rotational                     =    2.979 cal/mol-K
   - Vibrational                    =   73.131 cal/mol-K
 P.Frequency       -0.00       -0.00        0.00        0.00        0.00        0.00
 P.Frequency       17.70       20.12       29.40       38.17       59.78       63.67
 P.Frequency       81.99       91.49      121.81      133.87      174.39      185.82
 P.Frequency      201.78      204.90      216.10      232.16      241.82      252.77
 P.Frequency      257.36      266.40      279.16      290.22      299.72      306.48
 P.Frequency      339.44      356.19      377.90      393.56      406.61      452.67
 P.Frequency      494.62      514.91      532.47      566.46      691.39      731.72
 P.Frequency      741.55      762.89      774.56      826.99      850.83      898.70
 P.Frequency      920.90      929.20      930.96      935.19      943.86      950.92
 P.Frequency      963.14      992.73     1041.37     1068.55     1075.30     1085.16
 P.Frequency     1134.68     1139.21     1146.46     1166.41     1193.13     1193.88
 P.Frequency     1198.73     1236.43     1248.85     1271.55     1301.58     1317.82
 P.Frequency     1353.66     1357.08     1366.10     1375.17     1409.98     1417.30
 P.Frequency     1421.37     1423.46     1425.61     1438.65     1444.28     1447.23
 P.Frequency     1459.70     1485.74     1486.54     1488.76     1510.74     1514.01
 P.Frequency     1514.57     1515.28     1522.42     1525.08     1530.28     1532.04
 P.Frequency     1533.36     1538.91     1541.05     1550.59     2989.10     3041.50
 P.Frequency     3041.90     3046.79     3050.86     3059.36     3060.62     3061.10
 P.Frequency     3064.66     3073.13     3099.54     3100.93     3103.55     3104.35
 P.Frequency     3107.07     3112.77     3113.84     3115.97     3127.76     3128.95
 P.Frequency     3131.21     3140.03     3142.35     3160.65     3167.63     3168.57

 Normal Eigenvalue ||           Projected Infra Red Intensities
  Mode   [cm**-1]  || [atomic units] [(debye/angs)**2] [(KM/mol)] [arbitrary]
 ------ ---------- || -------------- ----------------- ---------- -----------
    1       -0.000 ||    0.000014           0.000         0.013       0.008
    2       -0.000 ||    0.000005           0.000         0.005       0.003
    3        0.000 ||    0.000006           0.000         0.006       0.003
    4        0.000 ||    0.000001           0.000         0.001       0.001
    5        0.000 ||    0.000006           0.000         0.006       0.003
    6        0.000 ||    0.000019           0.000         0.018       0.011
    7       17.703 ||    0.000684           0.016         0.667       0.385
    8       20.121 ||    0.000084           0.002         0.082       0.047
    9       29.401 ||    0.000348           0.008         0.339       0.195
   10       38.169 ||    0.000244           0.006         0.237       0.137
   11       59.783 ||    0.000076           0.002         0.074       0.043
   12       63.666 ||    0.000078           0.002         0.076       0.044
   13       81.990 ||    0.001640           0.038         1.599       0.922
   14       91.492 ||    0.001581           0.036         1.542       0.889
   15      121.807 ||    0.002276           0.052         2.218       1.279
   16      133.866 ||    0.006264           0.145         6.106       3.520
   17      174.394 ||    0.000866           0.020         0.844       0.487
   18      185.823 ||    0.000764           0.018         0.744       0.429
   19      201.777 ||    0.002203           0.051         2.148       1.238
   20      204.896 ||    0.002751           0.063         2.682       1.546
   21      216.103 ||    0.001844           0.043         1.798       1.036
   22      232.161 ||    0.000007           0.000         0.007       0.004
   23      241.819 ||    0.000287           0.007         0.280       0.161
   24      252.768 ||    0.000717           0.017         0.699       0.403
   25      257.364 ||    0.000719           0.017         0.701       0.404
   26      266.403 ||    0.003439           0.079         3.353       1.933
   27      279.159 ||    0.006053           0.140         5.901       3.402
   28      290.215 ||    0.000294           0.007         0.287       0.165
   29      299.724 ||    0.002147           0.050         2.093       1.207
   30      306.475 ||    0.000544           0.013         0.531       0.306
   31      339.437 ||    0.000171           0.004         0.167       0.096
   32      356.188 ||    0.007690           0.177         7.497       4.322
   33      377.897 ||    0.004805           0.111         4.684       2.700
   34      393.557 ||    0.000644           0.015         0.628       0.362
   35      406.607 ||    0.000205           0.005         0.200       0.115
   36      452.669 ||    0.023677           0.546        23.082      13.308
   37      494.624 ||    0.007336           0.169         7.151       4.123
   38      514.910 ||    0.111332           2.569       108.532      62.574
   39      532.466 ||    0.011662           0.269        11.369       6.555
   40      566.455 ||    0.007194           0.166         7.013       4.044
   41      691.393 ||    0.037122           0.856        36.188      20.864
   42      731.724 ||    0.016404           0.378        15.991       9.220
   43      741.548 ||    0.088396           2.039        86.173      49.683
   44      762.886 ||    0.007437           0.172         7.250       4.180
   45      774.556 ||    0.042499           0.980        41.430      23.886
   46      826.989 ||    0.000751           0.017         0.732       0.422
   47      850.833 ||    0.000203           0.005         0.198       0.114
   48      898.700 ||    0.004152           0.096         4.047       2.333
   49      920.896 ||    0.038606           0.891        37.635      21.698
   50      929.201 ||    0.000524           0.012         0.511       0.295
   51      930.960 ||    0.000505           0.012         0.493       0.284
   52      935.189 ||    0.109000           2.515       106.259      61.263
   53      943.861 ||    0.000393           0.009         0.383       0.221
   54      950.925 ||    0.000465           0.011         0.453       0.261
   55      963.144 ||    0.181497           4.187       176.932     102.010
   56      992.729 ||    0.017123           0.395        16.692       9.624
   57     1041.366 ||    0.003774           0.087         3.679       2.121
   58     1068.546 ||    0.252417           5.823       246.069     141.870
   59     1075.299 ||    0.027918           0.644        27.216      15.691
   60     1085.159 ||    0.033566           0.774        32.722      18.866
   61     1134.678 ||    0.012444           0.287        12.131       6.994
   62     1139.207 ||    0.004400           0.102         4.289       2.473
   63     1146.459 ||    0.017500           0.404        17.059       9.836
   64     1166.410 ||    0.015269           0.352        14.885       8.582
   65     1193.131 ||    0.005364           0.124         5.229       3.015
   66     1193.876 ||    0.058063           1.340        56.602      32.634
   67     1198.726 ||    0.038271           0.883        37.308      21.510
   68     1236.425 ||    0.109803           2.533       107.041      61.714
   69     1248.854 ||    0.063108           1.456        61.521      35.470
   70     1271.551 ||    0.038326           0.884        37.362      21.541
   71     1301.581 ||    0.041868           0.966        40.815      23.532
   72     1317.821 ||    0.000354           0.008         0.345       0.199
   73     1353.656 ||    0.006571           0.152         6.406       3.693
   74     1357.079 ||    0.005695           0.131         5.552       3.201
   75     1366.096 ||    0.027034           0.624        26.354      15.194
   76     1375.173 ||    0.004311           0.099         4.203       2.423
   77     1409.983 ||    0.005023           0.116         4.896       2.823
   78     1417.299 ||    0.005784           0.133         5.639       3.251
   79     1421.370 ||    0.001679           0.039         1.637       0.944
   80     1423.463 ||    0.007421           0.171         7.234       4.171
   81     1425.609 ||    0.016556           0.382        16.140       9.305
   82     1438.650 ||    0.007348           0.170         7.163       4.130
   83     1444.280 ||    0.010391           0.240        10.130       5.840
   84     1447.232 ||    0.015323           0.354        14.937       8.612
   85     1459.699 ||    0.020719           0.478        20.198      11.645
   86     1485.738 ||    0.004795           0.111         4.674       2.695
   87     1486.538 ||    0.007408           0.171         7.222       4.164
   88     1488.759 ||    0.005527           0.128         5.388       3.107
   89     1510.740 ||    0.000693           0.016         0.676       0.389
   90     1514.008 ||    0.000595           0.014         0.580       0.334
   91     1514.574 ||    0.005850           0.135         5.703       3.288
   92     1515.280 ||    0.000837           0.019         0.815       0.470
   93     1522.420 ||    0.002993           0.069         2.918       1.682
   94     1525.076 ||    0.000908           0.021         0.885       0.510
   95     1530.276 ||    0.002486           0.057         2.424       1.397
   96     1532.040 ||    0.008590           0.198         8.374       4.828
   97     1533.361 ||    0.001645           0.038         1.604       0.925
   98     1538.914 ||    0.003347           0.077         3.263       1.881
   99     1541.054 ||    0.002312           0.053         2.254       1.300
  100     1550.590 ||    0.002344           0.054         2.285       1.318
  101     2989.097 ||    0.041164           0.950        40.129      23.136
  102     3041.504 ||    0.004012           0.093         3.911       2.255
  103     3041.900 ||    0.034708           0.801        33.835      19.507
  104     3046.793 ||    0.013893           0.321        13.544       7.809
  105     3050.858 ||    0.022622           0.522        22.053      12.715
  106     3059.359 ||    0.017659           0.407        17.215       9.925
  107     3060.624 ||    0.020677           0.477        20.157      11.622
  108     3061.101 ||    0.005469           0.126         5.331       3.074
  109     3064.655 ||    0.016914           0.390        16.489       9.507
  110     3073.130 ||    0.000510           0.012         0.498       0.287
  111     3099.539 ||    0.008455           0.195         8.242       4.752
  112     3100.933 ||    0.001244           0.029         1.212       0.699
  113     3103.552 ||    0.027757           0.640        27.059      15.601
  114     3104.352 ||    0.013818           0.319        13.470       7.766
  115     3107.068 ||    0.005259           0.121         5.127       2.956
  116     3112.771 ||    0.073097           1.686        71.259      41.084
  117     3113.835 ||    0.024182           0.558        23.574      13.592
  118     3115.974 ||    0.094780           2.187        92.396      53.271
  119     3127.763 ||    0.027738           0.640        27.040      15.590
  120     3128.948 ||    0.036586           0.844        35.666      20.563
  121     3131.208 ||    0.024428           0.564        23.813      13.729
  122     3140.034 ||    0.025919           0.598        25.267      14.568
  123     3142.352 ||    0.030938           0.714        30.160      17.389
  124     3160.650 ||    0.002303           0.053         2.245       1.294
  125     3167.628 ||    0.002427           0.056         2.366       1.364
  126     3168.566 ||    0.002866           0.066         2.794       1.611
 ----------------------------------------------------------------------------

 Total times  cpu:    88273.6s     wall:    88389.8s
