============================== echo of input deck ==============================
echo

start molecule

memory total 40 gb
print low

title "TMS"
charge 0

geometry units angstroms print xyz autosym
  load format xyz TMS.start_geom.xyz
end

basis
  * library 6-311++G(2d,2p)
end

dft
  grid huge
  xc b3lyp
  mult 1
  noprint "final vectors analysis"
end

driver
  clear
  tight
  linopt 0
  maxiter 999
  xyz TMS_geom
end

property
  giao
  shielding
end

cosmo
  solvent chcl3
end

task dft optimize
task dft freq
task dft property

================================================================================

         Total DFT energy =     -449.287255980493
@ Step       Energy      Delta E   Gmax     Grms     Xrms     Xmax   Walltime
@ ---- ---------------- -------- -------- -------- -------- -------- --------
@    0    -449.28725598  0.0D+00  0.00448  0.00118  0.00000  0.00000    933.1
         Total DFT energy =     -449.287514762878
@    1    -449.28751476 -2.6D-04  0.00206  0.00046  0.01050  0.02068   1735.0
         Total DFT energy =     -449.287557662260
@    2    -449.28755766 -4.3D-05  0.00037  0.00009  0.00672  0.01349   2538.4
         Total DFT energy =     -449.287558913414
@    3    -449.28755891 -1.3D-06  0.00010  0.00003  0.00075  0.00146   3338.4
         Total DFT energy =     -449.287559319859
@    4    -449.28755932 -4.1D-07  0.00003  0.00001  0.00039  0.00108   4144.0
         Total DFT energy =     -449.287559461461
@    5    -449.28755946 -1.4D-07  0.00002  0.00001  0.00027  0.00082   4946.9
         Total DFT energy =     -449.287559554137
@    6    -449.28755955 -9.3D-08  0.00002  0.00001  0.00025  0.00074   5748.5
         Total DFT energy =     -449.287559709508
@    7    -449.28755971 -1.6D-07  0.00002  0.00001  0.00057  0.00165   6548.7
         Total DFT energy =     -449.287559879293
@    8    -449.28755988 -1.7D-07  0.00003  0.00001  0.00084  0.00236   7354.1
         Total DFT energy =     -449.287560034627
@    9    -449.28756003 -1.6D-07  0.00003  0.00001  0.00105  0.00276   8162.3
         Total DFT energy =     -449.287560143228
@   10    -449.28756014 -1.1D-07  0.00003  0.00001  0.00099  0.00268   8967.1
         Total DFT energy =     -449.287560243644
@   11    -449.28756024 -1.0D-07  0.00002  0.00001  0.00108  0.00294   9774.5
         Total DFT energy =     -449.287560355461
@   12    -449.28756036 -1.1D-07  0.00003  0.00001  0.00114  0.00289  10577.7
         Total DFT energy =     -449.287560442893
@   13    -449.28756044 -8.7D-08  0.00002  0.00001  0.00075  0.00182  11379.9
         Total DFT energy =     -449.287560493609
@   14    -449.28756049 -5.1D-08  0.00001  0.00000  0.00024  0.00073  12181.1
         Total DFT energy =     -449.287560509380
@   15    -449.28756051 -1.6D-08  0.00000  0.00000  0.00007  0.00018  12984.9
         Total DFT energy =     -449.287560513139
@   16    -449.28756051 -3.8D-09  0.00000  0.00000  0.00003  0.00008  13786.9
         Total DFT energy =     -449.287560513936
@   17    -449.28756051 -8.0D-10  0.00000  0.00000  0.00002  0.00005  14590.9
@   17    -449.28756051 -8.0D-10  0.00000  0.00000  0.00002  0.00005  14590.9

 Output coordinates in angstroms (scale by  1.889725989 to convert to a.u.)

  No.       Tag          Charge          X              Y              Z
 ---- ---------------- ---------- -------------- -------------- --------------
    1 Si                  14.0000     0.00070122     0.00010647    -0.00055531
    2 C                    6.0000     0.02480229     0.82700199    -1.69572162
    3 C                    6.0000     1.58808260    -0.99011705     0.23999310
    4 C                    6.0000    -1.48575579    -1.15560883     0.11333463
    5 C                    6.0000    -0.12604268     1.31907303     1.34220847
    6 H                    1.0000    -0.88779960     1.40201138    -1.86507782
    7 H                    1.0000     0.87174372     1.50956983    -1.78944158
    8 H                    1.0000     0.10429024     0.08569682    -2.49341255
    9 H                    1.0000     1.68546684    -1.76858106    -0.51928687
   10 H                    1.0000     2.46706583    -0.34594397     0.17238266
   11 H                    1.0000     1.60335564    -1.47394869     1.21869742
   12 H                    1.0000    -1.53173382    -1.64127662     1.09014128
   13 H                    1.0000    -2.41926689    -0.60809012    -0.03157359
   14 H                    1.0000    -1.43576700    -1.93764438    -0.64679915
   15 H                    1.0000    -0.13972525     0.86574261     2.33536003
   16 H                    1.0000     0.72099160     2.00644694     1.29953554
   17 H                    1.0000    -1.03970301     1.90616715     1.22993110

         Total DFT energy =     -449.287560512967
         Total DFT energy =     -449.287544558302
         Total DFT energy =     -449.287544643818
         Total DFT energy =     -449.287544526818
         Total DFT energy =     -449.287544552965
         Total DFT energy =     -449.287544622623
         Total DFT energy =     -449.287544566145
         Total DFT energy =     -449.287535314336
         Total DFT energy =     -449.287535221033
         Total DFT energy =     -449.287536468018
         Total DFT energy =     -449.287536575216
         Total DFT energy =     -449.287540598037
         Total DFT energy =     -449.287540590770
         Total DFT energy =     -449.287539911049
         Total DFT energy =     -449.287540029435
         Total DFT energy =     -449.287537137334
         Total DFT energy =     -449.287536993277
         Total DFT energy =     -449.287535272231
         Total DFT energy =     -449.287535408785
         Total DFT energy =     -449.287539568906
         Total DFT energy =     -449.287539341553
         Total DFT energy =     -449.287537793357
         Total DFT energy =     -449.287537655096
         Total DFT energy =     -449.287535159207
         Total DFT energy =     -449.287535310974
         Total DFT energy =     -449.287535309552
         Total DFT energy =     -449.287535264194
         Total DFT energy =     -449.287538458825
         Total DFT energy =     -449.287538545270
         Total DFT energy =     -449.287538478017
         Total DFT energy =     -449.287538830550
         Total DFT energy =     -449.287548306228
         Total DFT energy =     -449.287548078186
         Total DFT energy =     -449.287554119288
         Total DFT energy =     -449.287554630226
         Total DFT energy =     -449.287558317746
         Total DFT energy =     -449.287558163481
         Total DFT energy =     -449.287549461512
         Total DFT energy =     -449.287549725394
         Total DFT energy =     -449.287552500584
         Total DFT energy =     -449.287552956536
         Total DFT energy =     -449.287558565650
         Total DFT energy =     -449.287558406976
         Total DFT energy =     -449.287558288721
         Total DFT energy =     -449.287558264555
         Total DFT energy =     -449.287551704295
         Total DFT energy =     -449.287551662584
         Total DFT energy =     -449.287551065887
         Total DFT energy =     -449.287550574182
         Total DFT energy =     -449.287558342423
         Total DFT energy =     -449.287558524444
         Total DFT energy =     -449.287551225117
         Total DFT energy =     -449.287550817644
         Total DFT energy =     -449.287551485049
         Total DFT energy =     -449.287551109100
         Total DFT energy =     -449.287548906677
         Total DFT energy =     -449.287549361030
         Total DFT energy =     -449.287553306270
         Total DFT energy =     -449.287553404687
         Total DFT energy =     -449.287558345614
         Total DFT energy =     -449.287558260853
         Total DFT energy =     -449.287558511243
         Total DFT energy =     -449.287558681128
         Total DFT energy =     -449.287555814949
         Total DFT energy =     -449.287555356158
         Total DFT energy =     -449.287546600322
         Total DFT energy =     -449.287546725971
         Total DFT energy =     -449.287558651910
         Total DFT energy =     -449.287558443513
         Total DFT energy =     -449.287555795901
         Total DFT energy =     -449.287555389796
         Total DFT energy =     -449.287546613910
         Total DFT energy =     -449.287546787526
         Total DFT energy =     -449.287548127669
         Total DFT energy =     -449.287547696987
         Total DFT energy =     -449.287554726863
         Total DFT energy =     -449.287554895077
         Total DFT energy =     -449.287558119755
         Total DFT energy =     -449.287558053780
         Total DFT energy =     -449.287558612604
         Total DFT energy =     -449.287558433561
         Total DFT energy =     -449.287551175649
         Total DFT energy =     -449.287550796062
         Total DFT energy =     -449.287551443905
         Total DFT energy =     -449.287551115419
         Total DFT energy =     -449.287558350581
         Total DFT energy =     -449.287558378260
         Total DFT energy =     -449.287556101360
         Total DFT energy =     -449.287555902972
         Total DFT energy =     -449.287546243101
         Total DFT energy =     -449.287546650080
         Total DFT energy =     -449.287549436518
         Total DFT energy =     -449.287549736202
         Total DFT energy =     -449.287552567271
         Total DFT energy =     -449.287552911681
         Total DFT energy =     -449.287558389400
         Total DFT energy =     -449.287558632451
         Total DFT energy =     -449.287548260896
         Total DFT energy =     -449.287548073080
         Total DFT energy =     -449.287554106464
         Total DFT energy =     -449.287554469115
         Total DFT energy =     -449.287558239109
         Total DFT energy =     -449.287558448925
 Zero-Point correction to Energy  =   91.791 kcal/mol  (  0.146279 au)
 Thermal correction to Energy     =   97.663 kcal/mol  (  0.155636 au)
 Thermal correction to Enthalpy   =   98.255 kcal/mol  (  0.156580 au)
 Total Entropy                    =   90.143 cal/mol-K
   - Translational                =   39.322 cal/mol-K (mol. weight =  88.0708)
   - Rotational                   =   26.789 cal/mol-K (symmetry #  =        1)
   - Vibrational                  =   24.033 cal/mol-K
   - Translational                  =    2.979 cal/mol-K
   - Rotational                     =    2.979 cal/mol-K
   - Vibrational                    =   27.013 cal/mol-K
 P.Frequency       -0.00       -0.00       -0.00        0.00        0.00        0.00
 P.Frequency      132.76      154.93      163.74      167.13      185.84      186.34
 P.Frequency      233.01      234.62      235.11      578.73      684.97      685.77
 P.Frequency      686.47      688.82      691.21      693.70      827.38      832.21
 P.Frequency      867.26      867.58      874.59     1275.41     1275.75     1280.17
 P.Frequency     1286.05     1448.89     1451.05     1451.19     1452.55     1453.10
 P.Frequency     1462.24     1463.66     1465.23     3020.18     3020.45     3020.85
 P.Frequency     3023.86     3087.61     3088.25     3088.76     3089.39     3089.86
 P.Frequency     3090.50     3091.00     3091.33

 Normal Eigenvalue ||           Projected Infra Red Intensities
  Mode   [cm**-1]  || [atomic units] [(debye/angs)**2] [(KM/mol)] [arbitrary]
 ------ ---------- || -------------- ----------------- ---------- -----------
    1       -0.000 ||    0.000000           0.000         0.000       0.000
    2       -0.000 ||    0.000001           0.000         0.001       0.000
    3       -0.000 ||    0.000000           0.000         0.000       0.000
    4        0.000 ||    0.000001           0.000         0.001       0.000
    5        0.000 ||    0.000013           0.000         0.013       0.006
    6        0.000 ||    0.000000           0.000         0.000       0.000
    7      132.757 ||    0.000004           0.000         0.004       0.002
    8      154.929 ||    0.000029           0.001         0.028       0.013
    9      163.740 ||    0.000079           0.002         0.077       0.034
   10      167.131 ||    0.000025           0.001         0.024       0.011
   11      185.836 ||    0.000002           0.000         0.001       0.001
   12      186.341 ||    0.000006           0.000         0.006       0.003
   13      233.011 ||    0.005456           0.126         5.319       2.355
   14      234.625 ||    0.005592           0.129         5.451       2.413
   15      235.109 ||    0.005505           0.127         5.367       2.376
   16      578.735 ||    0.000008           0.000         0.008       0.004
   17      684.970 ||    0.028527           0.658        27.809      12.312
   18      685.774 ||    0.029657           0.684        28.911      12.800
   19      686.472 ||    0.029558           0.682        28.815      12.757
   20      688.824 ||    0.001847           0.043         1.800       0.797
   21      691.205 ||    0.001879           0.043         1.832       0.811
   22      693.700 ||    0.000514           0.012         0.502       0.222
   23      827.375 ||    0.000587           0.014         0.572       0.253
   24      832.212 ||    0.000690           0.016         0.672       0.298
   25      867.256 ||    0.212740           4.908       207.389      91.818
   26      867.584 ||    0.209967           4.844       204.686      90.621
   27      874.589 ||    0.203047           4.684       197.940      87.634
   28     1275.413 ||    0.058102           1.340        56.641      25.077
   29     1275.753 ||    0.039007           0.900        38.026      16.835
   30     1280.173 ||    0.043751           1.009        42.650      18.883
   31     1286.054 ||    0.010848           0.250        10.575       4.682
   32     1448.889 ||    0.000065           0.001         0.063       0.028
   33     1451.050 ||    0.000313           0.007         0.305       0.135
   34     1451.189 ||    0.000326           0.008         0.318       0.141
   35     1452.550 ||    0.000282           0.007         0.275       0.122
   36     1453.096 ||    0.000360           0.008         0.351       0.155
   37     1462.235 ||    0.008148           0.188         7.943       3.517
   38     1463.658 ||    0.007381           0.170         7.196       3.186
   39     1465.231 ||    0.010315           0.238        10.055       4.452
   40     3020.179 ||    0.018524           0.427        18.058       7.995
   41     3020.454 ||    0.018039           0.416        17.585       7.785
   42     3020.848 ||    0.017196           0.397        16.764       7.422
   43     3023.857 ||    0.000116           0.003         0.113       0.050
   44     3087.606 ||    0.002867           0.066         2.795       1.237
   45     3088.250 ||    0.002394           0.055         2.333       1.033
   46     3088.758 ||    0.002467           0.057         2.405       1.065
   47     3089.388 ||    0.017143           0.396        16.712       7.399
   48     3089.861 ||    0.013032           0.301        12.704       5.624
   49     3090.498 ||    0.058983           1.361        57.499      25.457
   50     3090.997 ||    0.067104           1.548        65.416      28.962
   51     3091.330 ||    0.049165           1.134        47.928      21.219
 ----------------------------------------------------------------------------

         Total DFT energy =     -449.287560654984
      Atom:    1  Si
           isotropic =     328.1725
      Atom:    2  C
           isotropic =     184.2579
      Atom:    3  C
           isotropic =     184.2478
      Atom:    4  C
           isotropic =     184.2103
      Atom:    5  C
           isotropic =     184.1629
      Atom:    6  H
           isotropic =      31.7862
      Atom:    7  H
           isotropic =      31.7739
      Atom:    8  H
           isotropic =      31.7700
      Atom:    9  H
           isotropic =      31.7652
      Atom:   10  H
           isotropic =      31.7753
      Atom:   11  H
           isotropic =      31.7907
      Atom:   12  H
           isotropic =      31.7884
      Atom:   13  H
           isotropic =      31.7816
      Atom:   14  H
           isotropic =      31.7675
      Atom:   15  H
           isotropic =      31.7841
      Atom:   16  H
           isotropic =      31.7731
      Atom:   17  H
           isotropic =      31.7898
 Total times  cpu:   100072.0s     wall:   100265.8s
