============================== echo of input deck ==============================
echo

start molecule

memory total 40 gb

print low

title "VX"
charge 0

geometry units angstroms print xyz autosym
#  load format xyz VX.converged_geometry_b3lyp_tz2p-solvent-h2o.xyz
  load format xyz VX.geom.xyz
end

basis
  * library cc-pvtz
end

dft
  direct
  grid fine
  xc b3lyp
  mult 1
# Reduce output during geometry optimization
  #noprint "final vectors analysis"
end

property
  giao
  shielding
end

cosmo
  solvent h2o
end

task dft energy
task dft property

================================================================================

 Output coordinates in angstroms (scale by  1.889725989 to convert to a.u.)

  No.       Tag          Charge          X              Y              Z
 ---- ---------------- ---------- -------------- -------------- --------------
    1 P                   15.0000     0.21433702    -2.26841881     0.58218518
    2 O                    8.0000     1.53542394    -1.73247750     0.15757339
    3 S                   16.0000    -1.38719300    -1.30497343    -0.40673649
    4 O                    8.0000    -0.03580610    -3.81602770     0.28404147
    5 C                    6.0000    -0.08044900    -2.21510462     2.35397545
    6 H                    1.0000     0.68545302    -2.81075332     2.85073725
    7 H                    1.0000    -0.01370266    -1.18244862     2.69190597
    8 H                    1.0000    -1.06681363    -2.61090906     2.58780687
    9 C                    6.0000     0.23217849    -4.40513935    -1.02577704
   10 C                    6.0000     0.06155773    -5.90227001    -0.91366118
   11 H                    1.0000     1.24700284    -4.14007804    -1.31837867
   12 H                    1.0000    -0.46751379    -3.97423449    -1.74120051
   13 H                    1.0000     0.25449055    -6.35764003    -1.88593257
   14 H                    1.0000     0.76342651    -6.32127071    -0.19231022
   15 H                    1.0000    -0.95352373    -6.15794399    -0.60935513
   16 C                    6.0000    -0.62642641     0.28464945    -0.94499813
   17 C                    6.0000    -0.57913125     1.35011435     0.15460606
   18 H                    1.0000    -1.26129378     0.61687167    -1.76466034
   19 H                    1.0000     0.36000348     0.05855975    -1.33951639
   20 H                    1.0000    -1.59617959     1.51942447     0.50358350
   21 H                    1.0000    -0.01819391     0.95810063     1.01474506
   22 N                    7.0000    -0.02376313     2.59574902    -0.34944712
   23 C                    6.0000     1.44895493     2.63055052    -0.40041997
   24 C                    6.0000     2.14635823     3.04149542     0.90901892
   25 C                    6.0000     1.95062972     3.47723389    -1.57500037
   26 H                    1.0000     1.75042848     1.60169426    -0.60702272
   27 H                    1.0000     1.80597528     2.43650685     1.75062830
   28 H                    1.0000     3.22527994     2.90350441     0.81457652
   29 H                    1.0000     1.96664997     4.09163094     1.14554031
   30 H                    1.0000     1.50635794     3.13518178    -2.51009551
   31 H                    1.0000     1.70636578     4.53352050    -1.44750837
   32 H                    1.0000     3.03631884     3.40060601    -1.65814076
   33 C                    6.0000    -0.72575485     3.83351708     0.03674385
   34 C                    6.0000    -1.05743629     3.97396769     1.53521581
   35 C                    6.0000    -1.99330780     4.01774637    -0.80708992
   36 H                    1.0000    -0.04995625     4.64968301    -0.21996793
   37 H                    1.0000    -0.17543440     3.84533504     2.16036254
   38 H                    1.0000    -1.46629383     4.96752977     1.72960924
   39 H                    1.0000    -1.80734474     3.24654291     1.85149742
   40 H                    1.0000    -1.74908473     4.02133132    -1.86945529
   41 H                    1.0000    -2.70887864     3.21253806    -0.62518688
   42 H                    1.0000    -2.48714813     4.95980774    -0.55972543

         Total DFT energy =    -1379.982939398769
         Total DFT energy =    -1379.982939436206
      Atom:    1  P
           isotropic =     223.9716
      Atom:    2  O
           isotropic =     174.3555
      Atom:    3  S
           isotropic =     487.2089
      Atom:    4  O
           isotropic =     190.2532
      Atom:    5  C
           isotropic =     157.1821
      Atom:    6  H
           isotropic =      29.8903
      Atom:    7  H
           isotropic =      29.9073
      Atom:    8  H
           isotropic =      29.9178
      Atom:    9  C
           isotropic =     115.8340
      Atom:   10  C
           isotropic =     165.6596
      Atom:   11  H
           isotropic =      27.4637
      Atom:   12  H
           isotropic =      27.4821
      Atom:   13  H
           isotropic =      30.4093
      Atom:   14  H
           isotropic =      30.3463
      Atom:   15  H
           isotropic =      30.3523
      Atom:   16  C
           isotropic =     143.0430
      Atom:   17  C
           isotropic =     131.5396
      Atom:   18  H
           isotropic =      29.3318
      Atom:   19  H
           isotropic =      28.6048
      Atom:   20  H
           isotropic =      29.0398
      Atom:   21  H
           isotropic =      29.0786
      Atom:   22  N
           isotropic =     180.7270
      Atom:   23  C
           isotropic =     125.9096
      Atom:   24  C
           isotropic =     165.0572
      Atom:   25  C
           isotropic =     158.9003
      Atom:   26  H
           isotropic =      28.7849
      Atom:   27  H
           isotropic =      30.3289
      Atom:   28  H
           isotropic =      30.9448
      Atom:   29  H
           isotropic =      30.8462
      Atom:   30  H
           isotropic =      30.8748
      Atom:   31  H
           isotropic =      30.3756
      Atom:   32  H
           isotropic =      30.6937
      Atom:   33  C
           isotropic =     132.4320
      Atom:   34  C
           isotropic =     162.4881
      Atom:   35  C
           isotropic =     157.0250
      Atom:   36  H
           isotropic =      28.5794
      Atom:   37  H
           isotropic =      30.7284
      Atom:   38  H
           isotropic =      30.8564
      Atom:   39  H
           isotropic =      30.6372
      Atom:   40  H
           isotropic =      30.9332
      Atom:   41  H
           isotropic =      30.6153
      Atom:   42  H
           isotropic =      30.7897
 Total times  cpu:    33841.1s     wall:    33877.7s
