============================== echo of input deck ==============================
echo

start molecule

memory total 40 gb

print low

title "der2"
charge 0

# spin-spin coupling only for odft
dft
  odft
  mult 1
end

geometry units angstroms print xyz autosym
#  load format xyz VX.converged_geometry_blyp_tz2p-solvent-chcl3.xyz
#  load format xyz VX.geom.xyz
 # load format xyz der1.pbe0_tz2p_good_cosmo-chcl3_optimized_geom.xyz
  load format xyz der2.geopt_freq_nmr_pbe0_tz2p_good_cosmo-chcl3_converged_geometry.xyz
end

basis
  * library 6-311++G(2d,2p)
end

dft
  direct
  grid fine
  xc b3lyp
  mult 1
# Reduce output during geometry optimization
  noprint "final vectors analysis"
end

property
  giao
  shielding 1  2
  spinspin  3  2 23 2 30 2 31
end

driver
  tight
  maxiter 9999
  xyz der2_geom_6-311++g2d_2p
end

cosmo
  solvent chcl3
end

task dft optimize
task dft property
================================================================================

         Total DFT energy =    -1016.402167142672
@ Step       Energy      Delta E   Gmax     Grms     Xrms     Xmax   Walltime
@ ---- ---------------- -------- -------- -------- -------- -------- --------
@    0   -1016.40216714  0.0D+00  0.01160  0.00238  0.00000  0.00000   5051.0
         Total DFT energy =    -1016.403753803140
         Total DFT energy =  -1016.403753803140
@    1   -1016.40375380 -1.6D-03  0.00314  0.00041  0.05331  0.15381   8038.0
         Total DFT energy =    -1016.403920345938
         Total DFT energy =    -1016.403927195817
@    2   -1016.40392720 -1.7D-04  0.00082  0.00017  0.01435  0.03458  13577.6
         Total DFT energy =    -1016.403961045506
         Total DFT energy =    -1016.403965824003
@    3   -1016.40396582 -3.9D-05  0.00053  0.00010  0.01578  0.04631  19121.8
         Total DFT energy =    -1016.403979753842
         Total DFT energy =    -1016.403984933352
@    4   -1016.40398493 -1.9D-05  0.00061  0.00009  0.01161  0.03131  24621.6
         Total DFT energy =    -1016.403995573031
         Total DFT energy =    -1016.404000271834
@    5   -1016.40400027 -1.5D-05  0.00044  0.00008  0.01549  0.03755  30119.5
         Total DFT energy =    -1016.404007091551
         Total DFT energy =    -1016.404011450168
@    6   -1016.40401145 -1.1D-05  0.00039  0.00007  0.01165  0.03250  35578.6
         Total DFT energy =    -1016.404015109598
         Total DFT energy =  -1016.404015109598
@    7   -1016.40401511 -3.7D-06  0.00023  0.00004  0.00403  0.00985  38495.8
         Total DFT energy =    -1016.404019653830
         Total DFT energy =  -1016.404019653830
@    8   -1016.40401965 -4.5D-06  0.00013  0.00003  0.00972  0.02282  41445.9
         Total DFT energy =    -1016.404022204129
         Total DFT energy =  -1016.404022204129
@    9   -1016.40402220 -2.6D-06  0.00023  0.00004  0.00471  0.01406  44432.0
         Total DFT energy =    -1016.404028563094
         Total DFT energy =    -1016.404029775050
@   10   -1016.40402978 -7.6D-06  0.00044  0.00007  0.02352  0.07250  49897.4
         Total DFT energy =    -1016.404033678296
         Total DFT energy =  -1016.404033678296
@   11   -1016.40403368 -3.9D-06  0.00037  0.00005  0.00443  0.01534  52865.9
         Total DFT energy =    -1016.404040551839
         Total DFT energy =  -1016.404040551839
@   12   -1016.40404055 -6.9D-06  0.00011  0.00003  0.01453  0.05156  55869.5
         Total DFT energy =    -1016.404041911556
         Total DFT energy =  -1016.404041911556
@   13   -1016.40404191 -1.4D-06  0.00013  0.00002  0.00589  0.02012  58786.8
         Total DFT energy =    -1016.404046019665
         Total DFT energy =  -1016.404046019665
@   14   -1016.40404602 -4.1D-06  0.00027  0.00003  0.01773  0.06009  61801.6
         Total DFT energy =    -1016.404050024807
         Total DFT energy =  -1016.404050024807
@   15   -1016.40405002 -4.0D-06  0.00034  0.00005  0.01939  0.06263  64783.9
         Total DFT energy =    -1016.404055178172
         Total DFT energy =    -1016.404055195138
@   16   -1016.40405520 -5.2D-06  0.00031  0.00006  0.03323  0.10207  70286.4
         Total DFT energy =    -1016.404059331366
         Total DFT energy =  -1016.404059331366
@   17   -1016.40405933 -4.1D-06  0.00021  0.00004  0.00411  0.01104  73237.1
         Total DFT energy =    -1016.404062822040
         Total DFT energy =  -1016.404062822040
@   18   -1016.40406282 -3.5D-06  0.00009  0.00001  0.00565  0.01568  76166.5
         Total DFT energy =    -1016.404063598409
         Total DFT energy =  -1016.404063598409
@   19   -1016.40406360 -7.8D-07  0.00011  0.00001  0.00186  0.00552  79083.7
         Total DFT energy =    -1016.404065658966
         Total DFT energy =  -1016.404065658966
@   20   -1016.40406566 -2.1D-06  0.00010  0.00002  0.00751  0.02298  82082.6
         Total DFT energy =    -1016.404067321595
         Total DFT energy =  -1016.404067321595
@   21   -1016.40406732 -1.7D-06  0.00009  0.00002  0.00669  0.02140  85037.1
         Total DFT energy =    -1016.404069573695
         Total DFT energy =  -1016.404069573695
@   22   -1016.40406957 -2.3D-06  0.00010  0.00002  0.00708  0.02277  87961.4
         Total DFT energy =    -1016.404072039432
         Total DFT energy =  -1016.404072039432
@   23   -1016.40407204 -2.5D-06  0.00015  0.00002  0.01020  0.03314  90889.1
         Total DFT energy =    -1016.404073075753
         Total DFT energy =  -1016.404073075753
@   24   -1016.40407308 -1.0D-06  0.00011  0.00001  0.00298  0.01379  93776.4
         Total DFT energy =    -1016.404073663969
         Total DFT energy =  -1016.404073663969
@   25   -1016.40407366 -5.9D-07  0.00003  0.00001  0.00174  0.00503  96702.8
         Total DFT energy =    -1016.404073878567
         Total DFT energy =  -1016.404073878567
@   26   -1016.40407388 -2.1D-07  0.00002  0.00000  0.00070  0.00193  99695.4
         Total DFT energy =    -1016.404074041598
         Total DFT energy =  -1016.404074041598
@   27   -1016.40407404 -1.6D-07  0.00004  0.00001  0.00137  0.00361 102619.9
         Total DFT energy =    -1016.404074154889
         Total DFT energy =  -1016.404074154889
@   28   -1016.40407415 -1.1D-07  0.00004  0.00001  0.00141  0.00341 105582.9
         Total DFT energy =    -1016.404074231369
         Total DFT energy =  -1016.404074231369
@   29   -1016.40407423 -7.6D-08  0.00002  0.00000  0.00130  0.00399 108555.8
         Total DFT energy =    -1016.404074230393
         Total DFT energy =  -1016.404074230393
@   30   -1016.40407423  9.8D-10  0.00001  0.00000  0.00091  0.00253 111554.9
         Total DFT energy =    -1016.404074184137
         Total DFT energy =  -1016.404074184137
@   31   -1016.40407418  4.6D-08  0.00003  0.00000  0.00125  0.00348 114500.6
         Total DFT energy =    -1016.404074112089
         Total DFT energy =  -1016.404074112089
@   32   -1016.40407411  7.2D-08  0.00003  0.00000  0.00124  0.00326 117464.9
         Total DFT energy =    -1016.404074077273
         Total DFT energy =  -1016.404074077273
@   33   -1016.40407408  3.5D-08  0.00002  0.00000  0.00106  0.00297 120420.7
         Total DFT energy =    -1016.404074078287
         Total DFT energy =  -1016.404074078287
@   34   -1016.40407408 -1.0D-09  0.00000  0.00000  0.00028  0.00087 123397.2
         Total DFT energy =    -1016.404074087477
         Total DFT energy =  -1016.404074087477
@   35   -1016.40407409 -9.2D-09  0.00000  0.00000  0.00016  0.00052 126326.9
         Total DFT energy =    -1016.404074098728
         Total DFT energy =  -1016.404074098728
@   36   -1016.40407410 -1.1D-08  0.00000  0.00000  0.00013  0.00044 129281.1
         Total DFT energy =    -1016.404074100835
         Total DFT energy =  -1016.404074100835
@   37   -1016.40407410 -2.1D-09  0.00000  0.00000  0.00003  0.00008 132214.7
         Total DFT energy =    -1016.404074106367
         Total DFT energy =  -1016.404074106367
@   38   -1016.40407411 -5.5D-09  0.00000  0.00000  0.00006  0.00018 135168.3
         Total DFT energy =    -1016.404074107083
         Total DFT energy =  -1016.404074107083
@   39   -1016.40407411 -7.2D-10  0.00000  0.00000  0.00003  0.00008 138097.4
         Total DFT energy =    -1016.404074109142
         Total DFT energy =  -1016.404074109142
@   40   -1016.40407411 -2.1D-09  0.00000  0.00000  0.00004  0.00010 141069.8
         Total DFT energy =    -1016.404074111970
         Total DFT energy =  -1016.404074111970
@   41   -1016.40407411 -2.8D-09  0.00000  0.00000  0.00002  0.00006 144027.9
         Total DFT energy =    -1016.404074113229
         Total DFT energy =  -1016.404074113229
@   42   -1016.40407411 -1.3D-09  0.00000  0.00000  0.00002  0.00005 146972.6
@   42   -1016.40407411 -1.3D-09  0.00000  0.00000  0.00002  0.00005 146972.6

 Output coordinates in angstroms (scale by  1.889725989 to convert to a.u.)

  No.       Tag          Charge          X              Y              Z
 ---- ---------------- ---------- -------------- -------------- --------------
    1 O                    8.0000     0.21774055    -0.76145264     0.03219531
    2 P                   15.0000    -0.30277985     0.42835490    -0.98448823
    3 O                    8.0000     0.92181449     1.53060451    -1.01706515
    4 O                    8.0000    -1.18061015     1.28162805     0.12193677
    5 C                    6.0000     0.87236573     2.49597943     0.09134279
    6 C                    6.0000    -0.66324633     2.63175267     0.36471716
    7 C                    6.0000     1.65852939     1.92147696     1.27076990
    8 C                    6.0000     1.53429669     3.77489797    -0.40265085
    9 C                    6.0000    -1.37373998     3.57334530    -0.60900449
   10 C                    6.0000    -1.01202920     2.99707257     1.80145587
   11 H                    1.0000     1.75718986     2.66169101     2.06380312
   12 H                    1.0000     1.18848217     1.03062863     1.67893972
   13 H                    1.0000     2.65846927     1.65705687     0.92894846
   14 H                    1.0000     1.10392928     4.11343128    -1.34154670
   15 H                    1.0000     1.42494603     4.56607575     0.33941933
   16 H                    1.0000     2.59901586     3.60055207    -0.55426459
   17 H                    1.0000    -1.11349436     4.61250567    -0.41330547
   18 H                    1.0000    -1.12587617     3.34273418    -1.64425289
   19 H                    1.0000    -2.44968620     3.46248057    -0.48104379
   20 H                    1.0000    -0.57770038     3.96321673     2.05951287
   21 H                    1.0000    -2.09351929     3.07284633     1.90718614
   22 H                    1.0000    -0.64858827     2.25252601     2.50487314
   23 C                    6.0000     0.47919460    -2.07092743    -0.51779288
   24 C                    6.0000    -0.33364524    -3.09676197     0.26170652
   25 N                    7.0000    -0.08266263    -4.46585820    -0.18961092
   26 C                    6.0000     1.20645010    -4.97665429     0.27489339
   27 H                    1.0000    -2.11146780    -5.00274395    -0.17107895
   28 H                    1.0000     1.36075984    -5.98158305    -0.11659269
   29 C                    6.0000    -1.16194917    -5.35868939     0.22670951
   30 H                    1.0000     0.20735583    -2.10138722    -1.57474862
   31 H                    1.0000     1.54929573    -2.25097050    -0.43423395
   32 H                    1.0000    -1.38991594    -2.87433549     0.10848264
   33 H                    1.0000    -0.12976656    -2.97939030     1.33801789
   34 H                    1.0000    -1.25166205    -5.42977017     1.32250945
   35 H                    1.0000     1.26183530    -5.02312775     1.37441130
   36 H                    1.0000     2.02172775    -4.34968267    -0.08005300
   37 H                    1.0000    -0.97812479    -6.36024067    -0.16165802

         Total DFT energy =    -1016.404074211379
      Atom:    1  P
           isotropic =     120.4143
 Total times  cpu:   203756.0s     wall:   204165.8s
