============================== echo of input deck ==============================
echo

start molecule

# https://nwchemgit.github.io/Memory.html
memory total 40 gb

print low

title "VX"
charge 0

geometry units angstroms print xyz autosym
  load format xyz h3po4_startgeom.xyz
end

basis
  * library 6-311++G(2d,2p)
end

dft
  #grid fine
  grid huge
  xc b3lyp
  mult 1
# Reduce output during geometry optimization
  noprint "final vectors analysis"
end

driver
  clear
  tight
  linopt 0
  maxiter 9999
  xyz h3po4_geom
end

property
  giao
  shielding
end

cosmo
  solvent h2o
end

task dft optimize
task dft freq
task dft property

================================================================================

         Total DFT energy =     -644.347988610602
@ Step       Energy      Delta E   Gmax     Grms     Xrms     Xmax   Walltime
@ ---- ---------------- -------- -------- -------- -------- -------- --------
@    0    -644.34798861  0.0D+00  0.01134  0.00460  0.00000  0.00000     57.4
         Total DFT energy =     -644.348334368811
@    1    -644.34833437 -3.5D-04  0.00382  0.00170  0.02548  0.07144    111.6
         Total DFT energy =     -644.347822967976
@    2    -644.34782297  5.1D-04  0.00330  0.00140  0.02534  0.05274    165.6
         Total DFT energy =     -644.347635887349
@    3    -644.34763589  1.9D-04  0.00413  0.00171  0.01029  0.01677    219.0
         Total DFT energy =     -644.347646544374
@    4    -644.34764654 -1.1D-05  0.00410  0.00164  0.00465  0.00884    272.8
         Total DFT energy =     -644.347783172896
@    5    -644.34778317 -1.4D-04  0.00204  0.00089  0.01352  0.02533    325.4
         Total DFT energy =     -644.347616061865
@    6    -644.34761606  1.7D-04  0.00067  0.00036  0.01715  0.03079    379.5
         Total DFT energy =     -644.347439092335
@    7    -644.34743909  1.8D-04  0.00048  0.00026  0.00984  0.01549    429.9
         Total DFT energy =     -644.347348713417
@    8    -644.34734871  9.0D-05  0.00038  0.00020  0.00490  0.00812    482.6
         Total DFT energy =     -644.347300874127
@    9    -644.34730087  4.8D-05  0.00032  0.00017  0.00255  0.00433    533.5
         Total DFT energy =     -644.347259901865
@   10    -644.34725990  4.1D-05  0.00027  0.00015  0.00218  0.00375    584.6
         Total DFT energy =     -644.347224502838
@   11    -644.34722450  3.5D-05  0.00023  0.00013  0.00186  0.00325    639.0
         Total DFT energy =     -644.347193954367
@   12    -644.34719395  3.1D-05  0.00020  0.00011  0.00160  0.00280    691.6
         Total DFT energy =     -644.347167493509
@   13    -644.34716749  2.6D-05  0.00017  0.00009  0.00137  0.00242    745.7
         Total DFT energy =     -644.347144659436
@   14    -644.34714466  2.3D-05  0.00015  0.00008  0.00118  0.00209    797.8
         Total DFT energy =     -644.347124986498
@   15    -644.34712499  2.0D-05  0.00012  0.00007  0.00101  0.00179    849.9
         Total DFT energy =     -644.347108094245
@   16    -644.34710809  1.7D-05  0.00011  0.00006  0.00087  0.00155    902.6
         Total DFT energy =     -644.347093457292
@   17    -644.34709346  1.5D-05  0.00009  0.00005  0.00074  0.00132    953.7
         Total DFT energy =     -644.347080945382
@   18    -644.34708095  1.3D-05  0.00008  0.00004  0.00063  0.00113   1006.3
         Total DFT energy =     -644.347070207389
@   19    -644.34707021  1.1D-05  0.00006  0.00004  0.00054  0.00097   1058.0
         Total DFT energy =     -644.347061012010
@   20    -644.34706101  9.2D-06  0.00006  0.00003  0.00046  0.00083   1110.5
         Total DFT energy =     -644.347053127644
@   21    -644.34705313  7.9D-06  0.00005  0.00003  0.00039  0.00071   1164.7
         Total DFT energy =     -644.347046403059
@   22    -644.34704640  6.7D-06  0.00004  0.00002  0.00034  0.00060   1217.7
         Total DFT energy =     -644.347040551623
@   23    -644.34704055  5.9D-06  0.00003  0.00002  0.00029  0.00052   1270.4
         Total DFT energy =     -644.347035651695
@   24    -644.34703565  4.9D-06  0.00003  0.00002  0.00024  0.00044   1322.2
         Total DFT energy =     -644.347016183841
@   25    -644.34701618  1.9D-05  0.00001  0.00000  0.00097  0.00175   1373.4
         Total DFT energy =     -644.347011921886
@   26    -644.34701192  4.3D-06  0.00000  0.00000  0.00021  0.00038   1426.5
         Total DFT energy =     -644.347007960309
@   27    -644.34700796  4.0D-06  0.00000  0.00000  0.00019  0.00035   1479.3
         Total DFT energy =     -644.347007684796
@   28    -644.34700768  2.8D-07  0.00000  0.00000  0.00002  0.00003   1531.9
@   28    -644.34700768  2.8D-07  0.00000  0.00000  0.00002  0.00003   1531.9

 Output coordinates in angstroms (scale by  1.889725989 to convert to a.u.)

  No.       Tag          Charge          X              Y              Z
 ---- ---------------- ---------- -------------- -------------- --------------
    1 P                   15.0000     0.00000000    -0.00000000     0.18447910
    2 O                    8.0000    -1.27472046    -0.64026704    -0.52529059
    3 O                    8.0000     0.08287271     1.42407382    -0.52529059
    4 O                    8.0000     1.19184775    -0.78380678    -0.52529059
    5 O                    8.0000     0.00000000     0.00000000     1.65823608
    6 H                    1.0000    -1.44853616    -1.54504125    -0.23387670
    7 H                    1.0000    -0.61377689     2.02698973    -0.23387670
    8 H                    1.0000     2.06231305    -0.48194849    -0.23387670

         Total DFT energy =     -644.347007685002
         Total DFT energy =     -644.347002829063
         Total DFT energy =     -644.346990130246
         Total DFT energy =     -644.346975474280
         Total DFT energy =     -644.347017641538
         Total DFT energy =     -644.346899835004
         Total DFT energy =     -644.347059746263
         Total DFT energy =     -644.346985836941
         Total DFT energy =     -644.346995220441
         Total DFT energy =     -644.347035624680
         Total DFT energy =     -644.346990707117
         Total DFT energy =     -644.347030499088
         Total DFT energy =     -644.346997710124
         Total DFT energy =     -644.347018806016
         Total DFT energy =     -644.347020449084
         Total DFT energy =     -644.347024868112
         Total DFT energy =     -644.347014373473
         Total DFT energy =     -644.346989827494
         Total DFT energy =     -644.346993006049
         Total DFT energy =     -644.347016808996
         Total DFT energy =     -644.346983610735
         Total DFT energy =     -644.347008693465
         Total DFT energy =     -644.347029087046
         Total DFT energy =     -644.347033801017
         Total DFT energy =     -644.347004431653
 Zero-Point correction to Energy  =   29.612 kcal/mol  (  0.047190 au)
 Thermal correction to Energy     =   32.886 kcal/mol  (  0.052408 au)
 Thermal correction to Enthalpy   =   33.479 kcal/mol  (  0.053352 au)
 Total Entropy                    =   70.932 cal/mol-K
   - Translational                =   39.639 cal/mol-K (mol. weight =  97.9769)
   - Rotational                   =   23.490 cal/mol-K (symmetry #  =        3)
   - Vibrational                  =    7.803 cal/mol-K
   - Translational                  =    2.979 cal/mol-K
   - Rotational                     =    2.979 cal/mol-K
   - Vibrational                    =   11.754 cal/mol-K
 P.Frequency     -184.98     -184.98        0.00        0.00        0.00        0.00
 P.Frequency        0.00        0.00      174.57      346.52      346.52      451.93
 P.Frequency      451.93      458.17      824.50      884.13      884.13     1073.98
 P.Frequency     1117.60     1117.60     1247.19     3779.80     3779.80     3785.58

 Normal Eigenvalue ||           Projected Infra Red Intensities
  Mode   [cm**-1]  || [atomic units] [(debye/angs)**2] [(KM/mol)] [arbitrary]
 ------ ---------- || -------------- ----------------- ---------- -----------
    1     -184.984 ||    0.152435           3.517       148.601      10.271
    2     -184.984 ||    0.152435           3.517       148.601      10.271
    3        0.000 ||    0.001063           0.025         1.037       0.072
    4        0.000 ||    0.000080           0.002         0.078       0.005
    5        0.000 ||    0.001032           0.024         1.006       0.070
    6        0.000 ||    0.000058           0.001         0.057       0.004
    7        0.000 ||    0.000111           0.003         0.108       0.007
    8        0.000 ||    0.000222           0.005         0.217       0.015
    9      174.569 ||    0.385032           8.883       375.348      25.944
   10      346.519 ||    0.015693           0.362        15.298       1.057
   11      346.519 ||    0.015693           0.362        15.298       1.057
   12      451.930 ||    0.102186           2.358        99.616       6.885
   13      451.930 ||    0.102186           2.358        99.616       6.885
   14      458.168 ||    0.010796           0.249        10.524       0.727
   15      824.504 ||    0.053229           1.228        51.890       3.587
   16      884.133 ||    0.446131          10.293       434.911      30.060
   17      884.133 ||    0.446131          10.293       434.911      30.060
   18     1073.979 ||    0.174613           4.028       170.222      11.765
   19     1117.595 ||    0.127433           2.940       124.228       8.586
   20     1117.595 ||    0.127433           2.940       124.228       8.586
   21     1247.189 ||    0.527712          12.175       514.440      35.557
   22     3779.796 ||    0.357500           8.248       348.509      24.088
   23     3779.796 ||    0.357500           8.248       348.509      24.088
   24     3785.576 ||    0.005165           0.119         5.035       0.348
 ----------------------------------------------------------------------------

         Total DFT energy =     -644.347022560565
      Atom:    1  P
           isotropic =     288.4395
      Atom:    2  O
           isotropic =     228.0622
      Atom:    3  O
           isotropic =     227.4070
      Atom:    4  O
           isotropic =     228.2737
      Atom:    5  O
           isotropic =     185.9083
      Atom:    6  H
           isotropic =      27.1190
      Atom:    7  H
           isotropic =      27.1880
      Atom:    8  H
           isotropic =      27.1291
 Total times  cpu:     5272.8s     wall:     5301.2s
