============================== echo of input deck ==============================
echo

start molecule

# https://nwchemgit.github.io/Memory.html
memory total 40 gb

print low

title "H3PO4"
charge 0

geometry units angstroms print xyz autosym
  load format xyz h3po4_startgeom.xyz
end

basis
  * library 6-311++G(2d,2p)
end

dft
  #grid fine
  grid huge
  xc b3lyp
  mult 1
# Reduce output during geometry optimization
  noprint "final vectors analysis"
end

driver
  tight
  maxiter 9999
  xyz h3po4_geom
end

property
  giao
  shielding
end

cosmo
  solvent h2o
end

task dft optimize
task dft freq
task dft property

================================================================================

         Total DFT energy =     -644.346811022611
@ Step       Energy      Delta E   Gmax     Grms     Xrms     Xmax   Walltime
@ ---- ---------------- -------- -------- -------- -------- -------- --------
@    0    -644.34681102  0.0D+00  0.00334  0.00171  0.00000  0.00000     58.1
         Total DFT energy =     -644.346907365575
         Total DFT energy =     -644.346936284748
@    1    -644.34693628 -1.3D-04  0.00178  0.00086  0.00958  0.01972    152.9
         Total DFT energy =     -644.346818263201
         Total DFT energy =     -644.346927415880
@    2    -644.34692742  8.9D-06  0.00122  0.00059  0.00452  0.00802    249.5
         Total DFT energy =     -644.346879100184
         Total DFT energy =     -644.346917159267
@    3    -644.34691716  1.0D-05  0.00106  0.00051  0.00108  0.00196    344.2
         Total DFT energy =     -644.346895588724
         Total DFT energy =     -644.346912272397
@    4    -644.34691227  4.9D-06  0.00099  0.00047  0.00043  0.00080    436.4
         Total DFT energy =     -644.346835125981
         Total DFT energy =     -644.346899480094
@    5    -644.34689948  1.3D-05  0.00085  0.00040  0.00094  0.00183    533.0
         Total DFT energy =     -644.346846734490
         Total DFT energy =     -644.346891235551
@    6    -644.34689124  8.2D-06  0.00077  0.00037  0.00053  0.00105    629.6
         Total DFT energy =     -644.346865149437
         Total DFT energy =     -644.346887265510
@    7    -644.34688727  4.0D-06  0.00074  0.00035  0.00023  0.00047    725.4
         Total DFT energy =     -644.346799305625
         Total DFT energy =     -644.346876713980
@    8    -644.34687671  1.1D-05  0.00066  0.00031  0.00057  0.00118    822.1
         Total DFT energy =     -644.346813361044
         Total DFT energy =     -644.346869652269
@    9    -644.34686965  7.1D-06  0.00062  0.00029  0.00036  0.00075    919.9
         Total DFT energy =     -644.346836500307
         Total DFT energy =     -644.346866094239
@   10    -644.34686609  3.6D-06  0.00060  0.00028  0.00017  0.00036   1014.4
         Total DFT energy =     -644.346754465128
         Total DFT energy =     -644.346856216790
@   11    -644.34685622  9.9D-06  0.00054  0.00026  0.00046  0.00098   1110.9
         Total DFT energy =     -644.346771415521
         Total DFT energy =     -644.346849155580
@   12    -644.34684916  7.1D-06  0.00051  0.00024  0.00032  0.00068   1204.8
         Total DFT energy =     -644.346802822855
         Total DFT energy =     -644.346845398566
@   13    -644.34684540  3.8D-06  0.00049  0.00023  0.00017  0.00035   1298.3
         Total DFT energy =     -644.346685136794
         Total DFT energy =     -644.346834431443
@   14    -644.34683443  1.1D-05  0.00045  0.00021  0.00048  0.00101   1394.1
         Total DFT energy =     -644.346706916968
         Total DFT energy =     -644.346826045908
@   15    -644.34682605  8.4D-06  0.00042  0.00019  0.00036  0.00076   1490.4
         Total DFT energy =     -644.346753682605
         Total DFT energy =     -644.346821304058
@   16    -644.34682130  4.7D-06  0.00040  0.00019  0.00020  0.00042   1586.0
         Total DFT energy =     -644.346558976653
         Total DFT energy =     -644.346806870082
@   17    -644.34680687  1.4D-05  0.00035  0.00016  0.00061  0.00127   1681.5
         Total DFT energy =     -644.346590279258
         Total DFT energy =     -644.346795160478
@   18    -644.34679516  1.2D-05  0.00031  0.00015  0.00049  0.00101   1775.9
         Total DFT energy =     -644.346668370245
         Total DFT energy =     -644.346788121888
@   19    -644.34678812  7.0D-06  0.00029  0.00014  0.00029  0.00060   1871.5
         Total DFT energy =     -644.346695025731
         Total DFT energy =     -644.346782946063
@   20    -644.34678295  5.2D-06  0.00028  0.00013  0.00021  0.00044   1968.3
         Total DFT energy =     -644.346690360740
         Total DFT energy =     -644.346777845781
@   21    -644.34677785  5.1D-06  0.00026  0.00012  0.00021  0.00043   2062.3
         Total DFT energy =     -644.346685650439
         Total DFT energy =     -644.346772804955
@   22    -644.34677280  5.0D-06  0.00025  0.00012  0.00021  0.00042   2158.9
         Total DFT energy =     -644.346681009768
         Total DFT energy =     -644.346767848087
@   23    -644.34676785  5.0D-06  0.00023  0.00011  0.00020  0.00042   2255.7
         Total DFT energy =     -644.346287954971
         Total DFT energy =     -644.346747074338
@   24    -644.34674707  2.1D-05  0.00017  0.00009  0.00084  0.00173   2352.0
         Total DFT energy =     -644.346376622670
         Total DFT energy =     -644.346730786388
@   25    -644.34673079  1.6D-05  0.00013  0.00007  0.00066  0.00135   2448.5
         Total DFT energy =     -644.346556216383
         Total DFT energy =     -644.346722383165
@   26    -644.34672238  8.4D-06  0.00011  0.00006  0.00034  0.00068   2543.7
         Total DFT energy =     -644.346619369998
         Total DFT energy =     -644.346717282029
@   27    -644.34671728  5.1D-06  0.00009  0.00006  0.00020  0.00041   2642.9
         Total DFT energy =     -644.346613925630
         Total DFT energy =     -644.346712199170
@   28    -644.34671220  5.1D-06  0.00009  0.00006  0.00020  0.00041   2737.8
         Total DFT energy =     -644.346608514252
         Total DFT energy =     -644.346707147163
@   29    -644.34670715  5.1D-06  0.00009  0.00006  0.00020  0.00040   2833.1
         Total DFT energy =     -644.346603125613
         Total DFT energy =     -644.346702119041
@   30    -644.34670212  5.0D-06  0.00009  0.00005  0.00020  0.00040   2926.9
         Total DFT energy =     -644.346597774470
         Total DFT energy =     -644.346697122046
@   31    -644.34669712  5.0D-06  0.00009  0.00005  0.00020  0.00040   3021.7
         Total DFT energy =     -644.346148675150
         Total DFT energy =     -644.346675991492
@   32    -644.34667599  2.1D-05  0.00009  0.00006  0.00082  0.00167   3116.5
@  376    -644.34414590  5.3D-06  0.00289  0.00136  0.00016  0.00028  35948.1
         Total DFT energy =     -644.344043957614
         Total DFT energy =     -644.344140673569
@  377    -644.34414067  5.2D-06  0.00289  0.00136  0.00015  0.00027  36044.5
         Total DFT energy =     -644.344040021627
         Total DFT energy =     -644.344135533019
@  378    -644.34413553  5.1D-06  0.00289  0.00136  0.00015  0.00027  36140.2
         Total DFT energy =     -644.344036145004
         Total DFT energy =     -644.344130467145
@  379    -644.34413047  5.1D-06  0.00289  0.00136  0.00015  0.00026  36235.3
         Total DFT energy =     -644.344032339576
         Total DFT energy =     -644.344125373234
@  380    -644.34412537  5.1D-06  0.00289  0.00136  0.00015  0.00026  36327.7
         Total DFT energy =     -644.344028594975
         Total DFT energy =     -644.344120556672
@  381    -644.34412056  4.8D-06  0.00289  0.00136  0.00014  0.00026  36423.3
         Total DFT energy =     -644.343664169531
         Total DFT energy =     -644.344098406303
@  382    -644.34409841  2.2D-05  0.00290  0.00136  0.00066  0.00117  36518.4
         Total DFT energy =     -644.343840835565
         Total DFT energy =     -644.344076779741
@  383    -644.34407678  2.2D-05  0.00288  0.00136  0.00073  0.00127  36613.4
         Total DFT energy =     -644.343926173933
         Total DFT energy =     -644.344058785010
@  384    -644.34405879  1.8D-05  0.00287  0.00135  0.00067  0.00109  36707.4
         Total DFT energy =     -644.343983754899
         Total DFT energy =     -644.344045948046
@  385    -644.34404595  1.3D-05  0.00284  0.00134  0.00057  0.00091  36804.0
         Total DFT energy =     -644.343988312812
         Total DFT energy =     -644.344032408779
@  386    -644.34403241  1.4D-05  0.00278  0.00131  0.00079  0.00139  36900.0
         Total DFT energy =     -644.343990407694
         Total DFT energy =     -644.344020160401
@  387    -644.34402016  1.2D-05  0.00269  0.00127  0.00103  0.00196  36996.5
         Total DFT energy =     -644.343984765302
         Total DFT energy =     -644.344009045676
@  388    -644.34400905  1.1D-05  0.00257  0.00121  0.00117  0.00233  37092.0
         Total DFT energy =     -644.343983695457
         Total DFT energy =     -644.344000741224
@  389    -644.34400074  8.3D-06  0.00244  0.00115  0.00115  0.00235  37185.6
         Total DFT energy =     -644.343985304906
         Total DFT energy =     -644.343995494020
@  390    -644.34399549  5.2D-06  0.00230  0.00108  0.00109  0.00228  37279.2
         Total DFT energy =     -644.343984027216
         Total DFT energy =     -644.343991612394
@  391    -644.34399161  3.9D-06  0.00216  0.00102  0.00104  0.00219  37372.9
         Total DFT energy =     -644.343910712135
         Total DFT energy =     -644.343977967389
@  392    -644.34397797  1.4D-05  0.00162  0.00076  0.00379  0.00814  37469.5
         Total DFT energy =     -644.343951575661
         Total DFT energy =     -644.343972150419
@  393    -644.34397215  5.8D-06  0.00132  0.00062  0.00189  0.00404  37564.2
         Total DFT energy =     -644.343971540771
         Total DFT energy =   -644.343971540771
@  394    -644.34397154  6.1D-07  0.00100  0.00047  0.00178  0.00376  37616.3
         Total DFT energy =     -644.343971544345
         Total DFT energy =   -644.343971544345
@  395    -644.34397154 -3.6D-09  0.00033  0.00015  0.00354  0.00726  37667.4
         Total DFT energy =     -644.343988934166
         Total DFT energy =     -644.344002531863
@  396    -644.34400253 -3.1D-05  0.00024  0.00011  0.00257  0.00395  37761.3
         Total DFT energy =     -644.344006966483
         Total DFT energy =   -644.344006966483
@  397    -644.34400697 -4.4D-06  0.00001  0.00001  0.00111  0.00219  37812.8
         Total DFT energy =     -644.344014861294
         Total DFT energy =     -644.344022735237
@  398    -644.34402274 -1.6D-05  0.00001  0.00000  0.00053  0.00102  37909.0
         Total DFT energy =     -644.344032098046
         Total DFT energy =     -644.344041448782
@  399    -644.34404145 -1.9D-05  0.00001  0.00000  0.00055  0.00111  38004.5
         Total DFT energy =     -644.344031159372
         Total DFT energy =     -644.344041440543
@  400    -644.34404144  8.2D-09  0.00001  0.00000  0.00000  0.00000  38098.4
@  400    -644.34404144  8.2D-09  0.00001  0.00000  0.00000  0.00000  38098.4

 Output coordinates in angstroms (scale by  1.889725989 to convert to a.u.)

  No.       Tag          Charge          X              Y              Z
 ---- ---------------- ---------- -------------- -------------- --------------
    1 P                   15.0000     0.00000000     0.00000000     0.19715692
    2 O                    8.0000     0.05453890     1.41226998    -0.52100250
    3 O                    8.0000     1.19579223    -0.75336706    -0.52100250
    4 O                    8.0000    -1.25033113    -0.65890292    -0.52100250
    5 O                    8.0000     0.00000000     0.00000000     1.66919799
    6 H                    1.0000    -0.75082969     1.93922299    -0.39134981
    7 H                    1.0000     2.05483122    -0.31937391    -0.39134981
    8 H                    1.0000    -1.30400153    -1.61984908    -0.39134981

         Total DFT energy =     -644.344041440499
         Total DFT energy =     -644.344034806905
         Total DFT energy =     -644.344030831047
         Total DFT energy =     -644.344008856843
         Total DFT energy =     -644.344056628983
         Total DFT energy =     -644.343921470592
         Total DFT energy =     -644.344110775688
         Total DFT energy =     -644.344001192706
         Total DFT energy =     -644.344091281907
         Total DFT energy =     -644.343942927566
         Total DFT energy =     -644.344115417700
         Total DFT energy =     -644.344071134136
         Total DFT energy =     -644.344034902447
         Total DFT energy =     -644.344054992960
         Total DFT energy =     -644.344058064028
         Total DFT energy =     -644.344063813745
         Total DFT energy =     -644.344049247552
         Total DFT energy =     -644.344039435191
         Total DFT energy =     -644.344016627464
         Total DFT energy =     -644.344029249106
         Total DFT energy =     -644.344084705991
         Total DFT energy =     -644.344059591767
         Total DFT energy =     -644.344009363061
         Total DFT energy =     -644.344065806925
         Total DFT energy =     -644.344049070353
 Zero-Point correction to Energy  =   31.062 kcal/mol  (  0.049500 au)
 Thermal correction to Energy     =   34.574 kcal/mol  (  0.055098 au)
 Thermal correction to Enthalpy   =   35.167 kcal/mol  (  0.056042 au)
 Total Entropy                    =   71.711 cal/mol-K
   - Translational                =   39.639 cal/mol-K (mol. weight =  97.9769)
   - Rotational                   =   23.463 cal/mol-K (symmetry #  =        3)
   - Vibrational                  =    8.609 cal/mol-K
   - Translational                  =    2.979 cal/mol-K
   - Rotational                     =    2.979 cal/mol-K
   - Vibrational                    =   14.176 cal/mol-K
 P.Frequency       -0.00       -0.00        0.00        0.00        0.00        0.00
 P.Frequency      299.14      299.14      391.48      391.48      396.30      466.76
 P.Frequency      466.76      493.19      846.66      903.12      903.12     1109.27
 P.Frequency     1169.34     1169.34     1255.46     3721.98     3721.98     3733.78

 Normal Eigenvalue ||           Projected Infra Red Intensities
  Mode   [cm**-1]  || [atomic units] [(debye/angs)**2] [(KM/mol)] [arbitrary]
 ------ ---------- || -------------- ----------------- ---------- -----------
    1       -0.000 ||    0.000024           0.001         0.024       0.002
    2       -0.000 ||    0.002059           0.047         2.007       0.133
    3        0.000 ||    0.000057           0.001         0.056       0.004
    4        0.000 ||    0.000668           0.015         0.651       0.043
    5        0.000 ||    0.002254           0.052         2.198       0.145
    6        0.000 ||    0.000126           0.003         0.123       0.008
    7      299.138 ||    0.066953           1.545        65.269       4.315
    8      299.138 ||    0.066953           1.545        65.269       4.315
    9      391.481 ||    0.019377           0.447        18.890       1.249
   10      391.481 ||    0.019377           0.447        18.890       1.249
   11      396.299 ||    0.445146          10.270       433.950      28.688
   12      466.762 ||    0.118254           2.728       115.279       7.621
   13      466.762 ||    0.118254           2.728       115.279       7.621
   14      493.191 ||    0.038176           0.881        37.216       2.460
   15      846.660 ||    0.064631           1.491        63.006       4.165
   16      903.119 ||    0.473826          10.932       461.909      30.536
   17      903.119 ||    0.473826          10.932       461.909      30.536
   18     1109.275 ||    0.273847           6.318       266.960      17.649
   19     1169.340 ||    0.150781           3.479       146.989       9.717
   20     1169.340 ||    0.150781           3.479       146.989       9.717
   21     1255.461 ||    0.428987           9.897       418.198      27.647
   22     3721.975 ||    0.402996           9.297       392.860      25.972
   23     3721.975 ||    0.402996           9.297       392.860      25.972
   24     3733.781 ||    0.003665           0.085         3.573       0.236
 ----------------------------------------------------------------------------

         Total DFT energy =     -644.344059384570
      Atom:    1  P
           isotropic =     292.1135
      Atom:    2  O
           isotropic =     229.8050
      Atom:    3  O
           isotropic =     230.4095
      Atom:    4  O
           isotropic =     230.0304
      Atom:    5  O
           isotropic =     185.2672
      Atom:    6  H
           isotropic =      27.0250
      Atom:    7  H
           isotropic =      26.9233
      Atom:    8  H
           isotropic =      26.9318
 Total times  cpu:    41647.6s     wall:    41842.6s
