============================== echo of input deck ==============================
echo

start molecule

memory total 40 gb
print low

title "Mustard gas, HD"
charge 0

geometry units angstroms print xyz autosym
#  load format xyz HD_geom_6-31Gs-017_final.xyz
  load format xyz HD_startgeom.xyz
end

basis
  * library 6-311++G(2d,2p)
end

dft
  grid huge
  xc b3lyp
  mult 1
  noprint "final vectors analysis"
end

driver
  clear
  tight
  linopt 0
  maxiter 999
  xyz HD_geom
end

property
  giao
  shielding
end

cosmo
  solvent chcl3
end

task dft optimize
task dft freq
task dft property

================================================================================

         Total DFT energy =    -1475.986422101124
@ Step       Energy      Delta E   Gmax     Grms     Xrms     Xmax   Walltime
@ ---- ---------------- -------- -------- -------- -------- -------- --------
@    0   -1475.98642210  0.0D+00  0.00396  0.00159  0.00000  0.00000    273.3
         Total DFT energy =    -1475.986774677219
@    1   -1475.98677468 -3.5D-04  0.00183  0.00044  0.00823  0.01468    512.0
         Total DFT energy =    -1475.986866617322
@    2   -1475.98686662 -9.2D-05  0.00101  0.00031  0.00565  0.01168    752.3
         Total DFT energy =    -1475.986908424471
@    3   -1475.98690842 -4.2D-05  0.00064  0.00017  0.00484  0.00980    990.8
         Total DFT energy =    -1475.986914738156
@    4   -1475.98691474 -6.3D-06  0.00028  0.00007  0.00154  0.00330   1229.5
         Total DFT energy =    -1475.986915689279
@    5   -1475.98691569 -9.5D-07  0.00006  0.00002  0.00076  0.00169   1470.3
         Total DFT energy =    -1475.986915763622
@    6   -1475.98691576 -7.4D-08  0.00002  0.00001  0.00024  0.00061   1710.8
         Total DFT energy =    -1475.986915768700
@    7   -1475.98691577 -5.1D-09  0.00001  0.00000  0.00007  0.00020   1952.8
         Total DFT energy =    -1475.986915795584
@    8   -1475.98691580 -2.7D-08  0.00000  0.00000  0.00003  0.00005   2196.2
@    8   -1475.98691580 -2.7D-08  0.00000  0.00000  0.00003  0.00005   2196.2

 Output coordinates in angstroms (scale by  1.889725989 to convert to a.u.)

  No.       Tag          Charge          X              Y              Z
 ---- ---------------- ---------- -------------- -------------- --------------
    1 Cl                  17.0000    -4.11138764    -0.00014664    -0.61678082
    2 Cl                  17.0000     4.11138764     0.00014664    -0.61678082
    3 S                   16.0000     0.00000000     0.00000000     0.97767574
    4 C                    6.0000    -1.39447679    -0.00079815    -0.22853236
    5 C                    6.0000     1.39447679     0.00079815    -0.22853236
    6 C                    6.0000    -2.69610987     0.00134648     0.54350336
    7 C                    6.0000     2.69610987    -0.00134648     0.54350336
    8 H                    1.0000    -1.31695126    -0.88964390    -0.85056114
    9 H                    1.0000    -1.31559165     0.88609226    -0.85317524
   10 H                    1.0000     1.31695126     0.88964390    -0.85056114
   11 H                    1.0000     1.31559165    -0.88609226    -0.85317524
   12 H                    1.0000    -2.81617744    -0.88611165     1.15525021
   13 H                    1.0000    -2.81518791     0.89126558     1.15185279
   14 H                    1.0000     2.81617744     0.88611165     1.15525021
   15 H                    1.0000     2.81518791    -0.89126558     1.15185279

         Total DFT energy =    -1475.986915768931
         Total DFT energy =    -1475.986909358865
         Total DFT energy =    -1475.986909090810
         Total DFT energy =    -1475.986913840334
         Total DFT energy =    -1475.986914112738
         Total DFT energy =    -1475.986910533448
         Total DFT energy =    -1475.986910778904
         Total DFT energy =    -1475.986904355259
         Total DFT energy =    -1475.986904354851
         Total DFT energy =    -1475.986913073980
         Total DFT energy =    -1475.986913074456
         Total DFT energy =    -1475.986904326788
         Total DFT energy =    -1475.986904201260
         Total DFT energy =    -1475.986897183424
         Total DFT energy =    -1475.986897364014
         Total DFT energy =    -1475.986886154437
         Total DFT energy =    -1475.986885878690
         Total DFT energy =    -1475.986891626156
         Total DFT energy =    -1475.986891715138
         Total DFT energy =    -1475.986898165361
         Total DFT energy =    -1475.986898127201
         Total DFT energy =    -1475.986884931881
         Total DFT energy =    -1475.986884651293
         Total DFT energy =    -1475.986892439845
         Total DFT energy =    -1475.986892199608
         Total DFT energy =    -1475.986912437306
         Total DFT energy =    -1475.986912537418
         Total DFT energy =    -1475.986902903091
         Total DFT energy =    -1475.986902765224
         Total DFT energy =    -1475.986908145116
         Total DFT energy =    -1475.986908172836
         Total DFT energy =    -1475.986912181844
         Total DFT energy =    -1475.986912508170
         Total DFT energy =    -1475.986902744152
         Total DFT energy =    -1475.986902707368
         Total DFT energy =    -1475.986907849674
         Total DFT energy =    -1475.986908156995
         Total DFT energy =    -1475.986912202267
         Total DFT energy =    -1475.986912233041
         Total DFT energy =    -1475.986902620446
         Total DFT energy =    -1475.986902432689
         Total DFT energy =    -1475.986908158001
         Total DFT energy =    -1475.986908132292
         Total DFT energy =    -1475.986911906323
         Total DFT energy =    -1475.986912268811
         Total DFT energy =    -1475.986902368850
         Total DFT energy =    -1475.986902306349
         Total DFT energy =    -1475.986908209120
         Total DFT energy =    -1475.986907922774
 Zero-Point correction to Energy  =   72.417 kcal/mol  (  0.115405 au)
 Thermal correction to Energy     =   78.463 kcal/mol  (  0.125039 au)
 Thermal correction to Enthalpy   =   79.055 kcal/mol  (  0.125983 au)
 Total Entropy                    =  102.495 cal/mol-K
   - Translational                =   41.063 cal/mol-K (mol. weight = 157.9724)
   - Rotational                   =   29.071 cal/mol-K (symmetry #  =        2)
   - Vibrational                  =   32.362 cal/mol-K
   - Translational                  =    2.979 cal/mol-K
   - Rotational                     =    2.979 cal/mol-K
   - Vibrational                    =   24.578 cal/mol-K
 P.Frequency       -0.00       -0.00       -0.00       -0.00        0.00        0.00
 P.Frequency       20.49       36.08       58.44      102.57      108.11      198.64
 P.Frequency      210.86      317.75      325.45      668.82      684.02      740.88
 P.Frequency      766.68      766.99      776.78      970.37      989.13     1033.30
 P.Frequency     1065.51     1131.33     1136.48     1225.85     1251.44     1291.82
 P.Frequency     1292.35     1318.59     1326.69     1474.06     1477.63     1486.11
 P.Frequency     1487.15     3067.77     3070.10     3107.19     3107.19     3120.84
 P.Frequency     3125.25     3170.75     3171.48

 Normal Eigenvalue ||           Projected Infra Red Intensities
  Mode   [cm**-1]  || [atomic units] [(debye/angs)**2] [(KM/mol)] [arbitrary]
 ------ ---------- || -------------- ----------------- ---------- -----------
    1       -0.000 ||    0.000074           0.002         0.072       0.068
    2       -0.000 ||    0.000090           0.002         0.088       0.083
    3       -0.000 ||    0.000000           0.000         0.000       0.000
    4       -0.000 ||    0.000337           0.008         0.328       0.308
    5        0.000 ||    0.000006           0.000         0.006       0.005
    6        0.000 ||    0.000013           0.000         0.013       0.012
    7       20.495 ||    0.000003           0.000         0.003       0.002
    8       36.075 ||    0.000000           0.000         0.000       0.000
    9       58.439 ||    0.001788           0.041         1.743       1.638
   10      102.572 ||    0.021505           0.496        20.965      19.699
   11      108.115 ||    0.000000           0.000         0.000       0.000
   12      198.645 ||    0.013270           0.306        12.937      12.156
   13      210.861 ||    0.000160           0.004         0.156       0.147
   14      317.749 ||    0.000653           0.015         0.636       0.598
   15      325.451 ||    0.006257           0.144         6.100       5.732
   16      668.824 ||    0.038844           0.896        37.867      35.582
   17      684.018 ||    0.158847           3.665       154.852     145.506
   18      740.878 ||    0.004168           0.096         4.063       3.818
   19      766.681 ||    0.004612           0.106         4.496       4.224
   20      766.995 ||    0.001137           0.026         1.109       1.042
   21      776.777 ||    0.017688           0.408        17.243      16.202
   22      970.369 ||    0.000000           0.000         0.000       0.000
   23      989.125 ||    0.000902           0.021         0.879       0.826
   24     1033.302 ||    0.023281           0.537        22.696      21.326
   25     1065.510 ||    0.001454           0.034         1.417       1.332
   26     1131.332 ||    0.000001           0.000         0.001       0.001
   27     1136.480 ||    0.002382           0.055         2.323       2.182
   28     1225.849 ||    0.042697           0.985        41.623      39.111
   29     1251.442 ||    0.030402           0.701        29.637      27.848
   30     1291.825 ||    0.000155           0.004         0.151       0.142
   31     1292.348 ||    0.000002           0.000         0.002       0.002
   32     1318.590 ||    0.016014           0.369        15.612      14.669
   33     1326.688 ||    0.002992           0.069         2.917       2.741
   34     1474.058 ||    0.005141           0.119         5.011       4.709
   35     1477.630 ||    0.000304           0.007         0.297       0.279
   36     1486.106 ||    0.014872           0.343        14.498      13.623
   37     1487.153 ||    0.011983           0.276        11.682      10.977
   38     3067.774 ||    0.026275           0.606        25.614      24.068
   39     3070.100 ||    0.003307           0.076         3.223       3.029
   40     3107.186 ||    0.000609           0.014         0.593       0.557
   41     3107.188 ||    0.024265           0.560        23.655      22.227
   42     3120.837 ||    0.008447           0.195         8.235       7.738
   43     3125.246 ||    0.000000           0.000         0.000       0.000
   44     3170.750 ||    0.006321           0.146         6.162       5.790
   45     3171.483 ||    0.000000           0.000         0.000       0.000
 ----------------------------------------------------------------------------

         Total DFT energy =    -1475.986914838836
      Atom:    1  Cl
           isotropic =     805.1584
      Atom:    2  Cl
           isotropic =     805.1584
      Atom:    3  S
           isotropic =     476.3339
      Atom:    4  C
           isotropic =     139.3975
      Atom:    5  C
           isotropic =     139.3975
      Atom:    6  C
           isotropic =     129.7870
      Atom:    7  C
           isotropic =     129.7870
      Atom:    8  H
           isotropic =      28.5190
      Atom:    9  H
           isotropic =      28.5219
      Atom:   10  H
           isotropic =      28.5190
      Atom:   11  H
           isotropic =      28.5219
      Atom:   12  H
           isotropic =      27.8274
      Atom:   13  H
           isotropic =      27.8259
      Atom:   14  H
           isotropic =      27.8274
      Atom:   15  H
           isotropic =      27.8259
 Total times  cpu:    26425.9s     wall:    26503.4s
