============================== echo of input deck ==============================
echo

restart Au30

permanent_dir /lustre/ukt/milias/scratch/Au33pyramide

driver
  maxiter 999
  xyz Au33geometry
end

task dft optimize

================================================================================

         Total DFT energy =    -4081.503763480738
@ Step       Energy      Delta E   Gmax     Grms     Xrms     Xmax   Walltime
@ ---- ---------------- -------- -------- -------- -------- -------- --------
@    0   -4081.50376348  0.0D+00  0.00015  0.00004  0.00000  0.00000   1044.1
         Total DFT energy =    -4081.503764059857
         Total DFT energy =  -4081.503764059857
@    1   -4081.50376406 -5.8D-07  0.00009  0.00003  0.00049  0.00117   1810.6
@    1   -4081.50376406 -5.8D-07  0.00009  0.00003  0.00049  0.00117   1810.9

 Output coordinates in angstroms (scale by  1.889725989 to convert to a.u.)

  No.       Tag          Charge          X              Y              Z
 ---- ---------------- ---------- -------------- -------------- --------------
    1 Au                  79.0000     0.93389328     2.72807975    -0.16762213
    2 Au                  79.0000    -2.92864212     3.85036870     0.51755450
    3 Au                  79.0000    -3.85963784     1.23360205     0.68483582
    4 Au                  79.0000     2.93215445     0.69994038     3.65927279
    5 Au                  79.0000    -0.32851623     4.58224806     1.52342409
    6 Au                  79.0000    -0.29823927    -4.87367899     0.05674591
    7 Au                  79.0000    -4.52290659    -1.51391690     0.80485495
    8 Au                  79.0000     2.59979314     0.75828482     0.93220453
    9 Au                  79.0000     1.64743157    -1.76791557    -3.15420399
   10 Au                  79.0000    -0.63873108    -0.04364609    -2.81080267
   11 Au                  79.0000    -2.12588549    -0.70728774     1.90420922
   12 Au                  79.0000    -0.06616386     0.02027426     0.01194587
   13 Au                  79.0000     2.11913378     0.75632795    -1.77171104
   14 Au                  79.0000    -1.85997894     1.99023148    -1.25694010
   15 Au                  79.0000    -2.65157964    -0.70928055    -1.05388299
   16 Au                  79.0000    -0.83514003     4.58000615    -1.32388844
   17 Au                  79.0000     2.31114066    -4.11602630     1.07114630
   18 Au                  79.0000     2.27422717    -1.71285455    -0.40292341
   19 Au                  79.0000    -1.31343895     1.99254406     1.81755224
   20 Au                  79.0000    -0.23609066     6.83466695     0.03688649
   21 Au                  79.0000     1.80123385    -4.11791087    -1.79601880
   22 Au                  79.0000     1.49287353     0.69417850    -4.44657289
   23 Au                  79.0000     0.02422447    -2.50307142     1.52436357
   24 Au                  79.0000     0.36849050    -0.03958133     2.85916514
   25 Au                  79.0000    -0.50190525    -2.50520430    -1.43584993
   26 Au                  79.0000     0.29329894     2.69270263    -2.95151996
   27 Au                  79.0000    -2.48990767    -3.27242027     0.44475802
   28 Au                  79.0000     1.93388549    -6.46348120    -0.33903190
   29 Au                  79.0000     1.29125406     2.69683233     2.66613467
   30 Au                  79.0000     2.63372870    -1.76401202     2.39591414

 Total times  cpu:     1331.0s     wall:     1811.0s
