============================== echo of input deck ==============================
echo

start molecule

print low

title "Q-G ecp"
charge 0

geometry units angstroms print xyz autosym
  load format xyz QuartzG153at.xyz
end

basis
 * library lanl2dz_ecp
end

ecp
  Si library lanl2dz_ecp
end

dft
  xc b3lyp
  mult 1
  maxiter 100
end

task dft energy
================================================================================

 Output coordinates in angstroms (scale by  1.889725989 to convert to a.u.)

  No.       Tag          Charge          X              Y              Z
 ---- ---------------- ---------- -------------- -------------- --------------
    1 O                    8.0000     5.49243016    -1.68992057    -2.06522538
    2 H                    1.0000    -0.40326490     6.35069652    -2.26048276
    3 H                    1.0000     3.04531661   -10.24434531    -2.17200258
    4 Si                  14.0000    -0.96817180    10.47534742    -1.41574155
    5 Si                  14.0000     2.29097436     6.82565049    -1.41912506
    6 Si                  14.0000     5.55111499     3.17697452    -1.42023246
    7 H                    1.0000    -0.20603384    -6.59205418    -2.16086093
    8 Si                  14.0000    -2.49558335     5.82877326    -1.36256719
    9 Si                  14.0000     0.76227410     2.17820719    -1.36578809
   10 Si                  14.0000     4.02489440    -1.47081526    -1.36760996
   11 H                    1.0000    -3.46649062    -2.95007241    -2.16040177
   12 Si                  14.0000    -4.02989470     1.18247246    -1.31099063
   13 Si                  14.0000    -0.76787487    -2.46724456    -1.31261933
   14 Si                  14.0000     2.49523093    -6.11915977    -1.31485246
   15 H                    1.0000     0.92153618     8.29647409    -2.41350255
   16 Si                  14.0000    -5.55839287    -3.46850909    -1.25859418
   17 Si                  14.0000    -2.29737932    -7.11609698    -1.26095909
   18 Si                  14.0000     0.95730446   -10.76629401    -1.26284285
   19 O                    8.0000    -2.56351249     0.96459952    -2.01134761
   20 O                    8.0000     1.42269189     7.26002686     2.74392880
   21 O                    8.0000     4.68338540     3.61050637     2.74125665
   22 O                    8.0000    -3.47998422    -6.61328015    -2.31573238
   23 O                    8.0000     0.69818820    -2.68523950    -2.01341716
   24 O                    8.0000    -0.10777905     2.61336970     2.79701210
   25 O                    8.0000     3.15339179    -1.03686781     2.79476448
   26 O                    8.0000    -0.22860003   -10.26360267    -2.31404371
   27 O                    8.0000     3.96344712    -6.33932392    -2.01049983
   28 O                    8.0000    -1.63885492    -2.03426101     2.84823807
   29 O                    8.0000     1.62196314    -5.68511824     2.84570658
   30 H                    1.0000    -1.94240449     1.70809631    -2.21805532
   31 H                    1.0000    -6.92341375    -1.99829214    -2.26063317
   32 O                    8.0000     1.31441415    -5.61643851    -2.37167379
   33 O                    8.0000     2.22845893     1.96021632    -2.06637623
   34 O                    8.0000    -3.11112799     9.20913516     1.04949420
   35 O                    8.0000    -4.38822521    -0.34952069    -0.83461277
   36 Si                  14.0000    -3.07965103    -2.57613273     2.29986915
   37 Si                  14.0000     0.18057167    -6.22597271     2.29796805
   38 O                    8.0000     0.15010323     5.56025815     1.04587262
   39 O                    8.0000     3.41050986     1.91065341     1.04342327
   40 H                    1.0000     4.58786652    -5.59751878    -2.21305907
   41 H                    1.0000     0.53484951    10.62750365    -3.19323287
   42 Si                  14.0000    -1.94840649     8.25516013     0.41412000
   43 O                    8.0000    -5.62909041    -2.47957590     0.05532083
   44 O                    8.0000    -2.36751624    -6.12798018     0.05340390
   45 O                    8.0000    -4.09081350    -3.69119112    -1.95470795
   46 Si                  14.0000     1.31224475     4.60517170     0.41113033
   47 O                    8.0000    -0.59041370    -4.93330875     1.65334642
   48 H                    1.0000    -3.66508061    -5.64646142    -2.25862612
   49 H                    1.0000     3.48951297    -8.83498051     1.22530180
   50 Si                  14.0000     4.57325533     0.95593722     0.40925860
   51 O                    8.0000    -2.91095629    -3.73381911     1.14951545
   52 O                    8.0000    -0.82978332    -7.33448746    -1.95864869
   53 O                    8.0000     1.93271696     5.29404645    -0.94140182
   54 O                    8.0000     2.13683291    -7.65043229    -0.83648378
   55 O                    8.0000    -4.64071169     4.56283256     1.10095929
   56 O                    8.0000     2.42225619   -10.98619097    -1.96513905
   57 O                    8.0000     5.19367944     1.64496429    -0.94342424
   58 H                    1.0000    -2.33424720    11.94829419    -2.41155399
   59 O                    8.0000    -1.37925620     0.91372618     1.09801226
   60 H                    1.0000     6.11653019    -0.94846759    -2.26898486
   61 H                    1.0000    -2.13583138    -0.99493268    -2.30618093
   62 O                    8.0000    -5.91984539    -4.99923829    -0.78080983
   63 O                    8.0000     1.88111041    -2.73506613     1.09449188
   64 H                    1.0000    -3.24984760    -3.62662598     4.17602746
   65 O                    8.0000    -2.85621350     4.29733412    -0.88605416
   66 O                    8.0000    -2.65487513    -8.64754716    -0.78218179
   67 H                    1.0000     0.01166992    -7.27712518     4.17380159
   68 O                    8.0000     0.60050839   -12.29774224    -0.78380643
   69 H                    1.0000     6.55332574     0.46167765     1.11739452
   70 H                    1.0000     5.02234801    -4.18644386     1.17184280
   71 H                    1.0000    -6.03972686    -0.00749685     2.09960453
   72 H                    1.0000     2.06510840     7.23806739     2.03089388
   73 H                    1.0000     5.32557005     3.58867127     2.02800907
   74 O                    8.0000    -2.56775199     6.81511956    -0.04701796
   75 O                    8.0000     0.69299377     3.16510116    -0.05040784
   76 H                    1.0000     0.53502541     2.59130834     2.08433005
   77 H                    1.0000     3.79608750    -1.05892150     2.08198411
   78 O                    8.0000     2.66755058    -8.58344655     1.65274594
   79 O                    8.0000     0.34858857    -7.38286876     1.14647454
   80 O                    8.0000    -6.73926490    -2.96532939    -2.31538587
   81 O                    8.0000     1.10720780     7.32971111    -2.47209885
   82 H                    1.0000    -3.85912020     7.30075079    -2.36387736
   83 O                    8.0000     3.95411135    -0.48396760    -0.05230830
   84 O                    8.0000    -0.81990955     6.05436353     3.45998604
   85 O                    8.0000     2.44182034     2.40423291     3.45836421
   86 O                    8.0000     4.36756571     3.68190725    -2.47282321
   87 H                    1.0000    -0.99633838    -2.05616877     2.13529169
   88 O                    8.0000    -2.35053793     1.40688023     3.51176089
   89 O                    8.0000     0.91104389    -2.24371116     3.50967085
   90 H                    1.0000     2.85157895     2.70258985    -2.27050216
   91 O                    8.0000    -0.78801308     8.01127584     1.54909096
   92 O                    8.0000    -3.88109391    -3.24129318     3.56394355
   93 O                    8.0000    -0.61998994    -6.89160600     3.56226191
   94 O                    8.0000    -3.67414116     6.33396150    -2.42081387
   95 O                    8.0000     2.47097907     4.36096564     1.54787829
   96 H                    1.0000     2.26403856    -5.70704176     2.13236337
   97 O                    8.0000    -3.85057130    -1.28402332     1.65380682
   98 O                    8.0000    -0.42245465     2.67916685    -2.41923706
   99 H                    1.0000     1.32158715    -1.94283766    -2.21669972
  100 H                    1.0000    -2.97887787     9.28681875     1.99716248
  101 O                    8.0000     5.73190880     0.71266501     1.54620631
  102 H                    1.0000    -0.41351633    -9.29671855    -2.25730252
  103 O                    8.0000    -4.09838272     2.16889499     0.00467801
  104 O                    8.0000    -5.21377621     1.68727921    -2.36349040
  105 H                    1.0000    -4.50868146     4.64068582     2.04864430
  106 Si                  14.0000    -5.00914647    -1.03995623     0.51711961
  107 O                    8.0000    -0.83549126    -1.48117147     0.00330937
  108 O                    8.0000     0.40677619     0.64635609    -0.88728665
  109 O                    8.0000    -2.31870479     3.36409699     1.60182593
  110 Si                  14.0000    -1.74803049    -4.68866660     0.51572766
  111 H                    1.0000     4.18165799     4.64860973    -2.41370293
  112 H                    1.0000     1.54219581    -2.62909097     4.12182251
  113 H                    1.0000    -0.18876275     5.66921667     4.07228958
  114 Si                  14.0000     1.51113709    -8.33896544     0.51390256
  115 O                    8.0000    -1.12384271    -3.99929663    -0.83491775
  116 O                    8.0000    -2.14848491    10.98148402    -2.47128532
  117 O                    8.0000     2.84289734    -0.96787072    -2.42304915
  118 H                    1.0000     1.12942036    -4.64954234    -2.31563800
  119 O                    8.0000     2.42414003    -5.13032279    -0.00108309
  120 H                    1.0000    -5.39951954     2.65381772    -2.30484378
  121 H                    1.0000     3.78982220     6.97993011    -3.19995434
  122 Si                  14.0000    -3.47809889     3.60840837     0.46609318
  123 H                    1.0000    -0.60834112     3.64592949    -2.36289235
  124 H                    1.0000     7.04994908     3.33253914    -3.20096152
  125 O                    8.0000    -0.92259354    11.58315976     0.04013428
  126 Si                  14.0000    -0.21628471    -0.04140356     0.46470038
  127 O                    8.0000     0.94183348    -0.28532962     1.60179990
  128 O                    8.0000     0.66026209    10.49755235    -2.25037321
  129 O                    8.0000     2.33890720     7.93385157     0.03637926
  130 Si                  14.0000     3.04358264    -3.69091123     0.46130489
  131 H                    1.0000     2.65773222    -0.00104517    -2.36671349
  132 O                    8.0000    -6.17173350    -0.08538559     1.15191914
  133 O                    8.0000    -1.02639791     5.60832997    -2.05633539
  134 O                    8.0000     3.91746041     6.84912386    -2.25751166
  135 O                    8.0000     4.20052026    -3.93505211     1.59962934
  136 O                    8.0000    -1.32817242     8.94387418    -0.93866400
  137 O                    8.0000     5.59869975     4.28408169     0.03611551
  138 O                    8.0000     7.17762000     3.20153134    -2.25855126
  139 Si                  14.0000    -0.01833047     6.71865627     2.19565137
  140 Si                  14.0000    -1.54845148     2.07177137     2.24807379
  141 H                    1.0000    -0.07214927    11.50143273     0.47793017
  142 H                    1.0000     3.18999068     7.85210415     0.47292742
  143 Si                  14.0000     3.24224537     3.06890436     2.19343086
  144 Si                  14.0000     1.71263256    -1.57826578     2.24600849
  145 H                    1.0000     6.44974261     4.20213512     0.47270551
  146 O                    8.0000     0.89059775    -9.77798823     0.05162337
  147 O                    8.0000    -1.95212651    -1.96203672    -2.36441352
  148 H                    1.0000     3.07353664     2.01889516     4.06995993
  149 O                    8.0000     3.66786844    -3.00265677    -0.89008770
  150 H                    1.0000    -1.71962523     1.02166363     4.12426178
  151 H                    1.0000     0.61934938   -12.34575627     0.17480698
  152 H                    1.0000    -2.63621906    -8.69570629     0.17642796
  153 H                    1.0000    -5.90215028    -5.04784472     0.17779557

         Total DFT energy =    -6005.060569577308
 Total times  cpu:      137.4s     wall:      146.7s
