============================== echo of input deck ==============================
echo

start molecule

title "TsOH@Au31 pyramide"
charge 0

geometry units angstroms print xyz autosym
  load format xyz AtOHonAu28.xyz
end

relativistic
   DOUGLAS-KROLL DKH
end

# Ts dyall.v2z decontr 26s23p17d10f, but used for At
basis spherical
 Au library  dzp-dkh
 O  library  dzp-dkh
 H  library  dzp-dkh
 At S; 5.25589660E+07 1.0
 At S; 1.39622807E+07 1.0
 At S; 4.73580777E+06 1.0
 At S; 1.77055155E+06 1.0
 At S; 7.21438834E+05 1.0
 At S; 3.08728868E+05 1.0
 At S; 1.37769819E+05 1.0
 At S; 6.31102557E+04 1.0
 At S; 2.95481902E+04 1.0
 At S; 1.40571584E+04 1.0
 At S; 6.78665037E+03 1.0
 At S; 3.32284017E+03 1.0
 At S; 1.65532803E+03 1.0
 At S; 8.34251093E+02 1.0
 At S; 4.31714084E+02 1.0
 At S; 2.28450220E+02 1.0
 At S; 1.23329160E+02 1.0
 At S; 6.77383376E+01 1.0
 At S; 3.44769397E+01 1.0
 At S; 1.96687234E+01 1.0
 At S; 9.71913239E+00 1.0
 At S; 5.35865868E+00 1.0
 At S; 2.24658072E+00 1.0
 At S; 1.14580781E+00 1.0
 At S; 3.79419796E-01 1.0
 At S; 1.45755955E-01 1.0
 At P; 4.50079474E+07 1.0
 At P; 1.25887001E+07 1.0
 At P; 3.82527515E+06 1.0
 At P; 1.24107592E+06 1.0
 At P; 4.23497767E+05 1.0
 At P; 1.50750108E+05 1.0
 At P; 5.57553472E+04 1.0
 At P; 2.14132811E+04 1.0
 At P; 8.56301977E+03 1.0
 At P; 3.57984955E+03 1.0
 At P; 1.56686094E+03 1.0
 At P; 7.16151398E+02 1.0
 At P; 3.39848795E+02 1.0
 At P; 1.64014961E+02 1.0
 At P; 8.22626489E+01 1.0
 At P; 4.02034342E+01 1.0
 At P; 2.08756913E+01 1.0
 At P; 9.96460376E+00 1.0
 At P; 5.01432190E+00 1.0
 At P; 2.11448402E+00 1.0
 At P; 9.40561230E-01 1.0
 At P; 2.93186959E-01 1.0
 At P; 8.92968449E-02 1.0
 At D; 8.83574648E+04 1.0
 At D; 2.05729720E+04 1.0
 At D; 6.58130697E+03 1.0
 At D; 2.52237884E+03 1.0
 At D; 1.08894908E+03 1.0
 At D; 5.10258847E+02 1.0
 At D; 2.53088086E+02 1.0
 At D; 1.30617020E+02 1.0
 At D; 6.88645118E+01 1.0
 At D; 3.63215132E+01 1.0
 At D; 1.95080977E+01 1.0
 At D; 1.02633964E+01 1.0
 At D; 5.29989718E+00 1.0
 At D; 2.64229268E+00 1.0
 At D; 1.24755275E+00 1.0
 At D; 5.46674430E-01 1.0
 At D; 2.07169726E-01 1.0
 At F; 1.55874574E+03 1.0
 At F; 5.16482517E+02 1.0
 At F; 2.16090441E+02 1.0
 At F; 1.00375884E+02 1.0
 At F; 4.91918626E+01 1.0
 At F; 2.47415547E+01 1.0
 At F; 1.24172009E+01 1.0
 At F; 6.07887380E+00 1.0
 At F; 2.84454763E+00 1.0
 At F; 1.19184727E+00 1.0
end

dft
  xc b3lyp
  mult 1
  maxiter 300
end

task dft energy
================================================================================

 Output coordinates in angstroms (scale by  1.889725989 to convert to a.u.)

  No.       Tag          Charge          X              Y              Z
 ---- ---------------- ---------- -------------- -------------- --------------
    1 Au                  79.0000    -0.23947516    -3.41496038     0.22602840
    2 Au                  79.0000     2.47088216    -4.03776509    -0.82224660
    3 Au                  79.0000     3.33561923    -0.06559647    -1.26137995
    4 Au                  79.0000     0.45012854    -1.00209263     4.54343370
    5 Au                  79.0000     1.16304724    -5.70144013     1.28195778
    6 Au                  79.0000    -1.04421973     5.23793649     0.32936193
    7 Au                  79.0000     4.28748981     3.95307304    -1.73345225
    8 Au                  79.0000    -0.59364762    -1.06420560     1.85644235
    9 Au                  79.0000    -3.03830698     1.16300766    -1.88384088
   10 Au                  79.0000    -0.33031667     0.53847259    -2.93287982
   11 Au                  79.0000     2.97846880     2.28683457     0.36734640
   12 Au                  79.0000     0.71804148     0.60124049    -0.24874632
   13 Au                  79.0000    -1.63866981    -1.12500789    -0.82816770
   14 Au                  79.0000     1.06950153    -1.75016492    -1.87750812
   15 Au                  79.0000     1.93319318     2.22576585    -2.31743006
   16 O                    8.0000    -2.99132680    -2.38404603     2.65382919
   17 Au                  79.0000     0.11915933    -5.76399927    -1.40489237
   18 Au                  79.0000    -2.35210334     3.57346029     2.43345511
   19 Au                  79.0000    -1.99389672     1.22432917     0.80147792
   20 Au                  79.0000     2.11442691    -1.68890816     0.80842309
   21 H                    1.0000    -2.79868599    -1.59229879     3.18435790
   22 At                  85.0000    -4.24931807    -2.59124049     0.31927642
   23 Au                  79.0000    -3.39575865     3.51167426    -0.25261999
   24 Au                  79.0000    -2.68301902    -1.18762149    -3.51472214
   25 Au                  79.0000     0.35764956     2.95003856     1.38323289
   26 Au                  79.0000     1.75907892     0.66262351     2.43747842
   27 Au                  79.0000    -0.68666942     2.88886618    -1.30251056
   28 Au                  79.0000    -1.28347026    -3.47604150    -2.45929855
   29 Au                  79.0000     1.57673096     4.57644778    -0.68188005
   30 Au                  79.0000     0.80646374    -3.35234792     2.91238417
   31 Au                  79.0000    -0.94993136     1.28600263     3.48797740

         Total DFT energy =  -553989.065831009531

                       DFT Final Molecular Orbital Analysis
                       ------------------------------------

 Vector    1  Occ=2.000000D+00  E=-3.505227D+03

 Vector 1955  Occ=0.000000D+00  E= 2.799785D+03

 Vector 1956  Occ=0.000000D+00  E= 2.799938D+03

 Vector 1957  Occ=0.000000D+00  E= 2.875400D+03

 Vector 1958  Occ=0.000000D+00  E= 3.496585D+03

 Vector 1959  Occ=0.000000D+00  E= 3.496589D+03

 Vector 1960  Occ=0.000000D+00  E= 3.496591D+03

 Vector 1961  Occ=0.000000D+00  E= 3.502518D+03

 Vector 1962  Occ=0.000000D+00  E= 3.502523D+03

 Vector 1963  Occ=0.000000D+00  E= 3.502529D+03

 Vector 1964  Occ=0.000000D+00  E= 3.502531D+03

 Vector 1965  Occ=0.000000D+00  E= 3.502538D+03

 Vector 1966  Occ=0.000000D+00  E= 5.105121D+03

 Vector 1967  Occ=0.000000D+00  E= 5.105121D+03

 Vector 1968  Occ=0.000000D+00  E= 5.105122D+03

 Vector 1969  Occ=0.000000D+00  E= 5.105122D+03

 Vector 1970  Occ=0.000000D+00  E= 5.105122D+03

 Vector 1971  Occ=0.000000D+00  E= 5.105122D+03

 Vector 1972  Occ=0.000000D+00  E= 5.105122D+03

 Vector 1973  Occ=0.000000D+00  E= 5.929605D+03

 Vector 1974  Occ=0.000000D+00  E= 7.414767D+03

 Vector 1975  Occ=0.000000D+00  E= 7.414770D+03

 Vector 1976  Occ=0.000000D+00  E= 7.414774D+03

 Vector 1977  Occ=0.000000D+00  E= 7.414776D+03

 Vector 1978  Occ=0.000000D+00  E= 7.414780D+03

 Vector 1979  Occ=0.000000D+00  E= 7.658223D+03

 Vector 1980  Occ=0.000000D+00  E= 7.658226D+03

 Vector 1981  Occ=0.000000D+00  E= 7.658227D+03

 Vector 1982  Occ=0.000000D+00  E= 1.134961D+04

 Vector 1983  Occ=0.000000D+00  E= 1.558486D+04

 Vector 1984  Occ=0.000000D+00  E= 1.558486D+04

 Vector 1985  Occ=0.000000D+00  E= 1.558486D+04

 Vector 1986  Occ=0.000000D+00  E= 1.558486D+04

 Vector 1987  Occ=0.000000D+00  E= 1.558487D+04

 Vector 1988  Occ=0.000000D+00  E= 1.561216D+04

 Vector 1989  Occ=0.000000D+00  E= 1.561216D+04

 Vector 1990  Occ=0.000000D+00  E= 1.561216D+04

 Vector 1991  Occ=0.000000D+00  E= 2.030064D+04

 Vector 1992  Occ=0.000000D+00  E= 2.993768D+04

 Vector 1993  Occ=0.000000D+00  E= 2.993768D+04

 Vector 1994  Occ=0.000000D+00  E= 2.993768D+04

 Vector 1995  Occ=0.000000D+00  E= 3.319311D+04

 Vector 1996  Occ=0.000000D+00  E= 3.319311D+04

 Vector 1997  Occ=0.000000D+00  E= 3.319311D+04

 Vector 1998  Occ=0.000000D+00  E= 3.319311D+04

 Vector 1999  Occ=0.000000D+00  E= 3.319312D+04

 Vector 2000  Occ=0.000000D+00  E= 3.436279D+04

 Vector 2001  Occ=0.000000D+00  E= 5.482467D+04

 Vector 2002  Occ=0.000000D+00  E= 5.482468D+04

 Vector 2003  Occ=0.000000D+00  E= 5.482468D+04

 Vector 2004  Occ=0.000000D+00  E= 5.588997D+04

 Vector 2005  Occ=0.000000D+00  E= 7.634834D+04

 Vector 2006  Occ=0.000000D+00  E= 7.634834D+04

 Vector 2007  Occ=0.000000D+00  E= 7.634834D+04

 Vector 2008  Occ=0.000000D+00  E= 7.634834D+04

 Vector 2009  Occ=0.000000D+00  E= 7.634834D+04

 Vector 2010  Occ=0.000000D+00  E= 8.849937D+04

 Vector 2011  Occ=0.000000D+00  E= 9.749719D+04

 Vector 2012  Occ=0.000000D+00  E= 9.749719D+04

 Vector 2013  Occ=0.000000D+00  E= 9.749719D+04

 Vector 2014  Occ=0.000000D+00  E= 1.382229D+05

 Vector 2015  Occ=0.000000D+00  E= 1.708111D+05

 Vector 2016  Occ=0.000000D+00  E= 1.708111D+05

 Vector 2017  Occ=0.000000D+00  E= 1.708111D+05

 Vector 2018  Occ=0.000000D+00  E= 2.148190D+05

 Vector 2019  Occ=0.000000D+00  E= 2.988738D+05

 Vector 2020  Occ=0.000000D+00  E= 2.988738D+05

 Vector 2021  Occ=0.000000D+00  E= 2.988738D+05

 Vector 2022  Occ=0.000000D+00  E= 3.369233D+05

 Vector 2023  Occ=0.000000D+00  E= 5.263678D+05

 Vector 2024  Occ=0.000000D+00  E= 5.263678D+05

 Vector 2025  Occ=0.000000D+00  E= 5.263678D+05

 Vector 2026  Occ=0.000000D+00  E= 5.359935D+05

 Vector 2027  Occ=0.000000D+00  E= 8.952795D+05

 Vector 2028  Occ=0.000000D+00  E= 9.536016D+05

 Vector 2029  Occ=0.000000D+00  E= 9.536016D+05

 Vector 2030  Occ=0.000000D+00  E= 9.536016D+05

 Vector 2031  Occ=0.000000D+00  E= 1.555632D+06

 Vector 2032  Occ=0.000000D+00  E= 1.747411D+06

 Vector 2033  Occ=0.000000D+00  E= 1.747411D+06

 Vector 2034  Occ=0.000000D+00  E= 1.747411D+06

     Multipole analysis of the density
     ---------------------------------

     L   x y z        total         alpha         beta         nuclear
     -   - - -        -----         -----         ----         -------
     0   0 0 0      0.000000  -1153.000000  -1153.000000   2306.000000

     1   1 0 0      0.990634      0.495317      0.495317     -0.000000
     1   0 1 0      0.989996      0.494998      0.494998      0.000000
     1   0 0 1     -0.645565     -0.322782     -0.322782      0.000000

     2   2 0 0   -604.314865 -18286.831406 -18286.831406  35969.347947
     2   1 1 0     -5.791022    -35.251547    -35.251547     64.712071
     2   1 0 1      7.106176     36.446388     36.446388    -65.786600
     2   0 2 0   -602.528579 -36625.903451 -36625.903451  72649.278323
     2   0 1 1      5.497229     26.628212     26.628212    -47.759194

 Total times  cpu:     9876.1s     wall:    10177.1s
