============================== echo of input deck ==============================
echo

restart BionQ

permanent_dir /lustre/ukt/milias/scratch/Bi-odft_on_quartz

driver
  maxiter 999
  xyz BiQgeo
end

task dft optimize

#task dft frequencies
================================================================================

         Total DFT energy =    -3877.343129031418
@ Step       Energy      Delta E   Gmax     Grms     Xrms     Xmax   Walltime
@ ---- ---------------- -------- -------- -------- -------- -------- --------
@    0   -3877.34312903  0.0D+00  0.00003  0.00001  0.00000  0.00000     87.8
         Total DFT energy =    -3877.343131556998
         Total DFT energy =  -3877.343131556998
@    1   -3877.34313156 -2.5D-06  0.00002  0.00000  0.00044  0.00284    184.9
         Total DFT energy =    -3877.343132107451
         Total DFT energy =  -3877.343132107451
@    2   -3877.34313211 -5.5D-07  0.00001  0.00000  0.00036  0.00263    271.8
         Total DFT energy =    -3877.343131978565
         Total DFT energy =  -3877.343131978565
@    3   -3877.34313198  1.3D-07  0.00002  0.00000  0.00031  0.00279    361.7
         Total DFT energy =    -3877.343130463012
         Total DFT energy =  -3877.343130463012
@    4   -3877.34313046  1.5D-06  0.00002  0.00000  0.00029  0.00224    450.7
         Total DFT energy =    -3877.343129848048
         Total DFT energy =  -3877.343129848048
@    5   -3877.34312985  6.1D-07  0.00002  0.00000  0.00029  0.00200    539.7
         Total DFT energy =    -3877.343130883295
         Total DFT energy =  -3877.343130883295
@    6   -3877.34313088 -1.0D-06  0.00002  0.00000  0.00024  0.00293    628.3
         Total DFT energy =    -3877.343132066617
         Total DFT energy =  -3877.343132066617
@    7   -3877.34313207 -1.2D-06  0.00002  0.00000  0.00039  0.00427    720.3
         Total DFT energy =    -3877.343130329891
         Total DFT energy =  -3877.343130329891
@    8   -3877.34313033  1.7D-06  0.00002  0.00000  0.00020  0.00115    809.9
@    8   -3877.34313033  1.7D-06  0.00002  0.00000  0.00020  0.00115    809.9

 Output coordinates in angstroms (scale by  1.889725989 to convert to a.u.)

  No.       Tag          Charge          X              Y              Z
 ---- ---------------- ---------- -------------- -------------- --------------
    1 O                    8.0000    -4.57404003     2.61489869    -3.42197314
    2 H                    1.0000     1.15821365    -4.30916730    -1.14364763
    3 O                    8.0000     2.05150381     1.81058927    -2.67779210
    4 O                    8.0000    -6.17470313     2.62581541     1.26900657
    5 O                    8.0000     1.54161537    -7.18282858     4.23184882
    6 Si                  14.0000     2.41512463    -0.96182868     2.56777824
    7 O                    8.0000    -2.57955305     0.99359887    -2.48173725
    8 Si                  14.0000     2.80514065    -5.35498889     0.58160346
    9 Si                  14.0000    -0.98373214    -2.40521696    -1.50704036
   10 Si                  14.0000    -4.18661499     1.45725991    -2.30822930
   11 H                    1.0000     1.31770470    -2.36975116    -2.44306869
   12 Si                  14.0000     4.15893197    -1.47469252    -2.34778770
   13 Si                  14.0000     0.96663508     2.39399407    -1.54714244
   14 Si                  14.0000    -2.79315615     5.36842368     0.56082584
   15 Si                  14.0000    -4.59958271     2.63056046     0.77189438
   16 H                    1.0000     1.50670012    -8.08956083     4.52550346
   17 H                    1.0000    -1.16955434     4.30252299    -1.17419983
   18 H                    1.0000    -4.28321827    -1.14035342     2.21877305
   19 O                    8.0000     2.54957875    -1.01392482    -2.50665442
   20 O                    8.0000    -2.58828912    -4.56309892     4.53630159
   21 O                    8.0000    -6.76242347    -3.49697885     1.00231984
   22 O                    8.0000    -3.92752336     4.15216240     0.75003282
   23 O                    8.0000    -0.51113467     2.79690452    -2.19694720
   24 O                    8.0000     1.84261680    -2.03995238     3.71026987
   25 O                    8.0000    -2.78884418    -0.47322027     3.24794116
   26 O                    8.0000    -4.45577440     2.02187724    -0.77324802
   27 O                    8.0000    -3.50917074     6.78253560     0.07285679
   28 O                    8.0000     4.82459504     1.69115338     1.50816461
   29 O                    8.0000     1.03929747     2.58371842     3.58413291
   30 H                    1.0000     2.07299160    -0.16700065    -2.56514533
   31 H                    1.0000    -2.53627869    -7.09660683    -0.37989218
   32 O                    8.0000    -1.69057655     4.81896753    -0.53879487
   33 O                    8.0000    -2.08266531    -1.82958901    -2.62830093
   34 O                    8.0000     2.45310990    -4.65359270     4.63893925
   35 O                    8.0000     5.02056269    -0.06816439    -2.59194808
   36 Si                  14.0000     5.35464794     2.80277583     0.40803351
   37 Si                  14.0000     1.48296912     4.19006134     3.36558856
   38 O                    8.0000    -1.99962448    -4.41412189     1.89099199
   39 O                    8.0000    -5.57100734    -2.12139547    -1.01241853
   40 H                    1.0000    -3.92095841     7.58650038    -0.23076155
   41 H                    1.0000    -1.44478342     8.14439844     4.45826074
   42 Si                  14.0000     1.51522935    -5.63680495     3.63745042
   43 O                    8.0000     4.64361765     2.37467445    -3.65808377
   44 O                    8.0000     2.59246836     6.18748605    -0.20762211
   45 Si                  14.0000     0.00547360     0.00569735     0.52366827
   46 Si                  14.0000    -2.60548037    -4.59749201     0.34902651
   47 O                    8.0000     2.02663288     4.43943887     1.81896704
   48 H                    1.0000     4.71411758    -3.33884944    -4.08162842
   49 H                    1.0000    -3.07156832     4.54437831     5.27108987
   50 Si                  14.0000    -5.66646841    -1.49350466    -2.54274607
   51 O                    8.0000     4.13427805     3.93766242     0.25184897
   52 Si                  14.0000    -1.43504508    -4.14702681     3.42712147
   53 O                    8.0000    -2.59489026    -6.18471535    -0.10752763
   54 O                    8.0000    -2.09696024     5.59858959     2.06766218
   55 O                    8.0000     6.19455614    -2.60406786     1.21448612
   56 H                    1.0000     2.39803836     1.34755162     3.48867094
   57 O                    8.0000    -4.68540321    -2.40483213    -3.57140832
   58 Si                  14.0000    -5.34573255    -2.79063305     0.50765391
   59 O                    8.0000     1.18248031    -0.63065607     1.49956007
   60 H                    1.0000    -4.76207078     3.30264675    -4.05545172
   61 H                    1.0000     2.89234251     1.93778217    -3.15378872
   62 O                    8.0000    -1.15829979     0.65629807     1.50610366
   63 O                    8.0000    -3.63882320     1.71760552     1.78775687
   64 H                    1.0000     7.58608918     3.92664989     1.16717026
   65 O                    8.0000     3.94071393    -4.13591274     0.74323128
   66 Si                  14.0000     4.61267852    -2.61411695     0.73938953
   67 H                    1.0000     3.34809434     4.83639734     5.06760527
   68 O                    8.0000    -1.48340393     7.23456182     4.17485163
   69 H                    1.0000    -8.12977769    -1.50346750    -3.40028330
   70 H                    1.0000    -7.08112877     2.56968730     1.55947156
   71 H                    1.0000     8.08894225     1.47125399    -3.51996766
   72 H                    1.0000    -3.27729925    -4.77298035     5.16136904
   73 H                    1.0000    -7.56797856    -3.90353736     1.30874908
   74 O                    8.0000     2.12854337    -5.56957837     2.09960564
   75 O                    8.0000    -1.69359067    -3.65974928    -0.68946629
   76 H                    1.0000     1.97216616    -2.88400640     4.17800344
   77 H                    1.0000    -2.34679123    -1.30286819     3.53029310
   78 O                    8.0000    -2.38999849     4.70997300     4.62044622
   79 O                    8.0000     0.07077284     5.05123040     3.58066362
   80 H                    1.0000    -4.52453691    -3.06016646    -4.24988867
   81 H                    1.0000    -2.10481465     0.14517631    -2.53625232
   82 H                    1.0000     3.92466677    -7.58050109    -0.20077839
   83 O                    8.0000    -5.05172061     0.04855438    -2.52633250
   84 O                    8.0000    -0.98799727    -2.53846372     3.62123223
   85 O                    8.0000    -4.80021201    -1.66732119     1.58816907
   86 O                    8.0000     7.18187817     1.50341502    -3.22690574
   87 H                    1.0000     4.31666086     1.17105424     2.15167095
   88 O                    8.0000     2.83628212     0.51512121     3.20869561
   89 O                    8.0000    -1.78992249     2.08682678     3.71180366
   90 H                    1.0000    -2.92931552    -1.96237303    -3.09248130
   91 O                    8.0000    -0.02026276    -5.00613251     3.63334200
   92 O                    8.0000     6.77698057     3.51590769     0.87607544
   93 O                    8.0000     2.65085850     4.61923501     4.45425962
   94 O                    8.0000     3.51612776    -6.77362145     0.09948021
   95 O                    8.0000    -4.12858296    -3.92849611     0.34800632
   96 H                    1.0000     0.20057972     2.09617064     3.66679713
   97 O                    8.0000     5.56054826     2.11698474    -1.10738914
   98 O                    8.0000     0.48492379    -2.81420784    -2.17341107
   99 H                    1.0000    -1.34750798     2.34930929    -2.44993001
  100 H                    1.0000     3.14223617    -4.48126161     5.27980261
  101 O                    8.0000    -7.21913400    -1.53165468    -3.11811320
  102 H                    1.0000     4.47427725     3.02370033    -4.34053659
  103 O                    8.0000     4.44750287    -2.02230782    -0.81016523
  104 O                    8.0000     4.53345273    -2.64433710    -3.45341550
  105 H                    1.0000     7.10484580    -2.54483859     1.49194847
  106 Si                  14.0000     5.63633486     1.47304369    -2.63216815
  107 O                    8.0000     0.64060675     1.16768563    -0.47092486
  108 O                    8.0000    -0.64314369    -1.17113448    -0.44446038
  109 O                    8.0000     3.66606456    -1.69014055     1.75854707
  110 Si                  14.0000     2.61077514     4.60554845     0.26673491
  111 O                    8.0000     1.68792188    -4.81827172    -0.50954160
  112 H                    1.0000    -1.91377149     2.93553006     4.17259291
  113 H                    1.0000    -0.14815461    -2.05041374     3.68815507
  114 Si                  14.0000    -1.46451753     5.68219169     3.59693648
  115 O                    8.0000     1.68540657     3.65560157    -0.74844521
  116 Si                  14.0000    -2.37687918     0.99763317     2.58728414
  117 H                    1.0000     2.52908235     7.09617232    -0.48944793
  118 Bi                  83.0000    -0.03908491    -0.01892072    -5.36226534

 Total times  cpu:      745.6s     wall:      809.9s
