============================== echo of input deck ==============================
echo

start BionQ

memory total 180 gb
permanent_dir /lustre/ukt/milias/scratch/Bi-odft_on_quartz

print low

title "Bi@Quartz ecp"
charge 0

geometry units angstroms print xyz autosym
  load format xyz BionQ.xyz
end

basis
 * library crenbl_ecp
end

ecp
  Si library crenbl_ecp
  Bi library crenbl_ecp
end

dft
  odft
  mult 4
  xc revpbe cpbe96
  disp vdw 4
  maxiter 500
end

driver
  maxiter 999
end

task dft optimize

#task dft frequencies

================================================================================

         Total DFT energy =    -3877.334336756143
@ Step       Energy      Delta E   Gmax     Grms     Xrms     Xmax   Walltime
@ ---- ---------------- -------- -------- -------- -------- -------- --------
@    0   -3877.33433676  0.0D+00  0.00792  0.00199  0.00000  0.00000    116.3
         Total DFT energy =    -3877.271557818540
         Total DFT energy =    -3877.337095114321
@    1   -3877.33709511 -2.8D-03  0.00557  0.00128  0.07418  0.26902    287.4
         Total DFT energy =    -3877.331589437035
         Total DFT energy =    -3877.337410460397
@    2   -3877.33741046 -3.2D-04  0.00385  0.00103  0.06885  0.42666    460.8
         Total DFT energy =    -3877.329805045636
         Total DFT energy =    -3877.338374434541
@    3   -3877.33837443 -9.6D-04  0.00310  0.00060  0.03988  0.17519    632.5
         Total DFT energy =    -3877.336111079996
         Total DFT energy =    -3877.339119977722
@    4   -3877.33911998 -7.5D-04  0.00189  0.00040  0.03670  0.09074    800.6
         Total DFT energy =    -3877.338821897169
         Total DFT energy =    -3877.340728892468
@    5   -3877.34072889 -1.6D-03  0.00174  0.00046  0.02624  0.22219    951.8
         Total DFT energy =    -3877.341051037150
         Total DFT energy =    -3877.341199362629
@    6   -3877.34119936 -4.7D-04  0.00282  0.00057  0.02598  0.10643   1103.3
         Total DFT energy =    -3877.341435743354
         Total DFT energy =    -3877.341725591996
@    7   -3877.34172559 -5.3D-04  0.00260  0.00047  0.02332  0.09288   1254.2
         Total DFT energy =    -3877.340891128862
         Total DFT energy =    -3877.342067033962
@    8   -3877.34206703 -3.4D-04  0.00192  0.00034  0.01175  0.06109   1403.9
         Total DFT energy =    -3877.342331399836
         Total DFT energy =    -3877.342406323080
@    9   -3877.34240632 -3.4D-04  0.00107  0.00027  0.01847  0.08209   1551.3
         Total DFT energy =    -3877.342324919900
         Total DFT energy =    -3877.342615126272
@   10   -3877.34261513 -2.1D-04  0.00157  0.00024  0.01455  0.04871   1702.4
         Total DFT energy =    -3877.342700477162
         Total DFT energy =    -3877.342742857163
@   11   -3877.34274286 -1.3D-04  0.00149  0.00026  0.01463  0.07199   1853.7
         Total DFT energy =    -3877.341536286274
         Total DFT energy =    -3877.342768548797
@   12   -3877.34276855 -2.6D-05  0.00120  0.00020  0.00430  0.04036   2007.7
         Total DFT energy =    -3877.341700203939
         Total DFT energy =    -3877.341651550278
@   13   -3877.34165155  1.1D-03  0.00088  0.00016  0.00500  0.04521   2159.3
         Total DFT energy =    -3877.341838933015
         Total DFT energy =    -3877.341797052293
@   14   -3877.34179705 -1.5D-04  0.00110  0.00026  0.01565  0.10899   2296.3
         Total DFT energy =    -3877.343179846508
         Total DFT energy =    -3877.341564696660
@   15   -3877.34156470  2.3D-04  0.00297  0.00058  0.03650  0.28963   2442.8
         Total DFT energy =    -3877.343159868102
         Total DFT energy =    -3877.343248837091
@   16   -3877.34324884 -1.7D-03  0.00089  0.00021  0.02160  0.13299   2593.0
         Total DFT energy =    -3877.343175629087
         Total DFT energy =    -3877.343314005029
@   17   -3877.34331401 -6.5D-05  0.00057  0.00011  0.00742  0.03279   2740.4
         Total DFT energy =    -3877.343334547844
         Total DFT energy =    -3877.343366757063
@   18   -3877.34336676 -5.3D-05  0.00047  0.00010  0.00515  0.02059   2888.5
         Total DFT energy =    -3877.342244641408
         Total DFT energy =    -3877.343386639306
@   19   -3877.34338664 -2.0D-05  0.00047  0.00010  0.00089  0.00387   3031.8
         Total DFT energy =    -3877.342329247851
         Total DFT energy =    -3877.343424630597
@   20   -3877.34342463 -3.8D-05  0.00042  0.00009  0.00122  0.00889   3178.6
         Total DFT energy =    -3877.342402955626
         Total DFT energy =    -3877.343463451874
@   21   -3877.34346345 -3.9D-05  0.00036  0.00008  0.00119  0.00693   3332.4
         Total DFT energy =    -3877.342436771276
         Total DFT energy =    -3877.343497320730
@   22   -3877.34349732 -3.4D-05  0.00032  0.00007  0.00110  0.00781   3484.3
         Total DFT energy =    -3877.342469173489
         Total DFT energy =    -3877.343527336923
@   23   -3877.34352734 -3.0D-05  0.00027  0.00006  0.00095  0.00679   3640.3
         Total DFT energy =    -3877.342483348730
         Total DFT energy =    -3877.343552430615
@   24   -3877.34355243 -2.5D-05  0.00023  0.00006  0.00090  0.00542   3793.7
         Total DFT energy =    -3877.342501523022
         Total DFT energy =    -3877.342351784793
@   25   -3877.34235178  1.2D-03  0.00021  0.00005  0.00081  0.00619   3947.8
         Total DFT energy =    -3877.343667172365
         Total DFT energy =    -3877.343729058737
@   26   -3877.34372906 -1.4D-03  0.00043  0.00008  0.00843  0.06422   4067.9
         Total DFT energy =    -3877.343818669497
         Total DFT energy =    -3877.343832114324
@   27   -3877.34383211 -1.0D-04  0.00032  0.00008  0.00879  0.03192   4215.4
         Total DFT energy =    -3877.343910784857
         Total DFT energy =    -3877.343914069017
@   28   -3877.34391407 -8.2D-05  0.00064  0.00014  0.01456  0.07167   4368.3
         Total DFT energy =    -3877.343939893864
         Total DFT energy =    -3877.343940891402
@   29   -3877.34394089 -2.7D-05  0.00040  0.00008  0.00521  0.02478   4517.6
         Total DFT energy =    -3877.342726289837
         Total DFT energy =    -3877.343943357768
@   30   -3877.34394336 -2.5D-06  0.00040  0.00008  0.00026  0.00187   4666.6
         Total DFT energy =    -3877.342762837106
         Total DFT energy =    -3877.343951445820
@   31   -3877.34395145 -8.1D-06  0.00038  0.00007  0.00078  0.00397   4817.5
         Total DFT energy =    -3877.342854031427
         Total DFT energy =    -3877.342750437147
@   32   -3877.34275044  1.2D-03  0.00036  0.00006  0.00132  0.00587   4971.9
         Total DFT energy =    -3877.342833076467
         Total DFT energy =    -3877.342833254399
@   33   -3877.34283325 -8.3D-05  0.00026  0.00006  0.01029  0.06582   5121.0
         Total DFT energy =    -3877.342879270327
         Total DFT energy =    -3877.342871187226
@   34   -3877.34287119 -3.8D-05  0.00047  0.00010  0.01005  0.02915   5268.4
         Total DFT energy =    -3877.342876085942
         Total DFT energy =  -3877.342876085942
@   35   -3877.34287609 -4.9D-06  0.00031  0.00007  0.00276  0.01715   5374.8
         Total DFT energy =    -3877.342900110883
         Total DFT energy =    -3877.342917916581
@   36   -3877.34291792 -4.2D-05  0.00041  0.00007  0.00537  0.03341   5496.0
         Total DFT energy =    -3877.342973687842
         Total DFT energy =    -3877.342974101774
@   37   -3877.34297410 -5.6D-05  0.00054  0.00012  0.00984  0.04252   5643.8
         Total DFT energy =    -3877.342973292858
         Total DFT energy =  -3877.342973292858
@   38   -3877.34297329  8.1D-07  0.00027  0.00005  0.00421  0.01773   5735.7
         Total DFT energy =    -3877.342971904867
         Total DFT energy =  -3877.342971904867
@   39   -3877.34297190  1.4D-06  0.00017  0.00003  0.00277  0.02509   5818.3
         Total DFT energy =    -3877.343007805244
         Total DFT energy =    -3877.342972017756
@   40   -3877.34297202 -1.1D-07  0.00069  0.00011  0.00623  0.04777   5944.0
         Total DFT energy =    -3877.343015269831
         Total DFT energy =    -3877.343026795563
@   41   -3877.34302680 -5.5D-05  0.00029  0.00006  0.00679  0.05510   6071.0
         Total DFT energy =    -3877.343043204257
         Total DFT energy =    -3877.343048954530
@   42   -3877.34304895 -2.2D-05  0.00063  0.00012  0.01003  0.05005   6204.4
         Total DFT energy =    -3877.343045231511
         Total DFT energy =  -3877.343045231511
@   43   -3877.34304523  3.7D-06  0.00017  0.00004  0.00462  0.03110   6289.3
         Total DFT energy =    -3877.343063931859
         Total DFT energy =    -3877.343072459145
@   44   -3877.34307246 -2.7D-05  0.00030  0.00007  0.00482  0.03353   6417.0
         Total DFT energy =    -3877.343081773639
         Total DFT energy =    -3877.343082976193
@   45   -3877.34308298 -1.1D-05  0.00020  0.00004  0.00305  0.01096   6548.7
         Total DFT energy =    -3877.343094727827
         Total DFT energy =    -3877.343096824210
@   46   -3877.34309682 -1.4D-05  0.00013  0.00002  0.00422  0.01636   6676.9
         Total DFT energy =    -3877.343101990791
         Total DFT energy =    -3877.343102983776
@   47   -3877.34310298 -6.2D-06  0.00012  0.00003  0.00228  0.00948   6801.8
         Total DFT energy =    -3877.343103556905
         Total DFT energy =  -3877.343103556905
@   48   -3877.34310356 -5.7D-07  0.00012  0.00003  0.00339  0.01468   6880.6
         Total DFT energy =    -3877.343100452141
         Total DFT energy =  -3877.343100452141
@   49   -3877.34310045  3.1D-06  0.00011  0.00002  0.00189  0.00750   6972.8
         Total DFT energy =    -3877.343089016778
         Total DFT energy =    -3877.343097130612
@   50   -3877.34309713  3.3D-06  0.00011  0.00002  0.00118  0.00465   7103.4
         Total DFT energy =    -3877.343094960845
         Total DFT energy =  -3877.343094960845
@   51   -3877.34309496  2.2D-06  0.00010  0.00002  0.00307  0.00963   7187.0
         Total DFT energy =    -3877.343093684509
         Total DFT energy =  -3877.343093684509
@   52   -3877.34309368  1.3D-06  0.00014  0.00002  0.00119  0.00675   7270.0
         Total DFT energy =    -3877.343103853145
         Total DFT energy =    -3877.343103267802
@   53   -3877.34310327 -9.6D-06  0.00042  0.00004  0.00420  0.02103   7399.6
         Total DFT energy =    -3877.343099212821
         Total DFT energy =  -3877.343099212821
@   54   -3877.34309921  4.1D-06  0.00007  0.00001  0.00242  0.01018   7494.2
         Total DFT energy =    -3877.343097748644
         Total DFT energy =  -3877.343097748644
@   55   -3877.34309775  1.5D-06  0.00003  0.00001  0.00078  0.00317   7581.1
         Total DFT energy =    -3877.343097916339
         Total DFT energy =  -3877.343097916339
@   56   -3877.34309792 -1.7D-07  0.00003  0.00001  0.00104  0.00396   7664.2
         Total DFT energy =    -3877.343100726799
         Total DFT energy =  -3877.343100726799
@   57   -3877.34310073 -2.8D-06  0.00004  0.00001  0.00070  0.00465   7746.1
         Total DFT energy =    -3877.343105966569
         Total DFT energy =    -3877.343112218801
@   58   -3877.34311222 -1.1D-05  0.00008  0.00001  0.00179  0.00639   7874.2
         Total DFT energy =    -3877.343110889447
         Total DFT energy =  -3877.343110889447
@   59   -3877.34311089  1.3D-06  0.00006  0.00001  0.00049  0.00323   7956.1
         Total DFT energy =    -3877.343102820400
         Total DFT energy =    -3877.343109941659
@   60   -3877.34310994  9.5D-07  0.00005  0.00001  0.00010  0.00052   8080.1
@   60   -3877.34310994  9.5D-07  0.00005  0.00001  0.00010  0.00052   8080.1

 Output coordinates in angstroms (scale by  1.889725989 to convert to a.u.)

  No.       Tag          Charge          X              Y              Z
 ---- ---------------- ---------- -------------- -------------- --------------
    1 O                    8.0000    -4.57517851     2.61575947    -3.42428614
    2 H                    1.0000     1.15945932    -4.30748535    -1.14116372
    3 O                    8.0000     2.05220713     1.81078672    -2.67630727
    4 O                    8.0000    -6.17629729     2.62612691     1.26823746
    5 O                    8.0000     1.54251034    -7.18205029     4.23310934
    6 Si                  14.0000     2.41706037    -0.96117770     2.56720747
    7 O                    8.0000    -2.58143525     0.99471167    -2.48211029
    8 Si                  14.0000     2.80713656    -5.35243536     0.58410750
    9 Si                  14.0000    -0.98429841    -2.40656760    -1.50535192
   10 Si                  14.0000    -4.18855423     1.45867654    -2.30969870
   11 H                    1.0000     1.31655834    -2.36932240    -2.44338153
   12 Si                  14.0000     4.16019921    -1.47550034    -2.35026114
   13 Si                  14.0000     0.96612846     2.39285566    -1.54614756
   14 Si                  14.0000    -2.79273083     5.36750385     0.56340795
   15 Si                  14.0000    -4.60128550     2.63115688     0.77074725
   16 H                    1.0000     1.50826146    -8.08911134     4.52595337
   17 H                    1.0000    -1.16947252     4.30059744    -1.17148844
   18 H                    1.0000    -4.28372476    -1.13916826     2.21548851
   19 O                    8.0000     2.55033194    -1.01543598    -2.50662733
   20 O                    8.0000    -2.58633593    -4.56135328     4.53766791
   21 O                    8.0000    -6.76346603    -3.49281094     0.99974526
   22 O                    8.0000    -3.92890126     4.15266936     0.75085502
   23 O                    8.0000    -0.51093995     2.79674897    -2.19736107
   24 O                    8.0000     1.84662788    -2.04102689     3.70881566
   25 O                    8.0000    -2.79069963    -0.47284933     3.24747979
   26 O                    8.0000    -4.45809972     2.02405017    -0.77506886
   27 O                    8.0000    -3.50580472     6.78187722     0.07186315
   28 O                    8.0000     4.82457063     1.68522867     1.50176311
   29 O                    8.0000     1.03799741     2.58338198     3.58763533
   30 H                    1.0000     2.07358440    -0.16859305    -2.56307325
   31 H                    1.0000    -2.53942093    -7.09858826    -0.37512459
   32 O                    8.0000    -1.68802056     4.81529907    -0.53268079
   33 O                    8.0000    -2.08296392    -1.82859912    -2.62577640
   34 O                    8.0000     2.45163840    -4.65243816     4.64371600
   35 O                    8.0000     5.02056251    -0.06857075    -2.59694125
   36 Si                  14.0000     5.35388239     2.79982215     0.40425092
   37 Si                  14.0000     1.48178986     4.18949755     3.36862077
   38 O                    8.0000    -1.99990754    -4.41305562     1.89183224
   39 O                    8.0000    -5.56933376    -2.12351300    -1.01750576
   40 H                    1.0000    -3.91588383     7.58625564    -0.23302228
   41 H                    1.0000    -1.44711699     8.14426261     4.46176177
   42 Si                  14.0000     1.51652668    -5.63569153     3.63961925
   43 O                    8.0000     4.64146654     2.37321794    -3.66439240
   44 O                    8.0000     2.59148713     6.18503114    -0.20558381
   45 Si                  14.0000     0.00477219     0.00455084     0.52500117
   46 Si                  14.0000    -2.60643233    -4.59839445     0.35030318
   47 O                    8.0000     2.02686423     4.43790074     1.82229992
   48 H                    1.0000     4.71371196    -3.34002372    -4.08426975
   49 H                    1.0000    -3.06827779     4.54165930     5.27733319
   50 Si                  14.0000    -5.66547596    -1.49343879    -2.54689023
   51 O                    8.0000     4.13389759     3.93588793     0.25404188
   52 Si                  14.0000    -1.43384682    -4.14579366     3.42740881
   53 O                    8.0000    -2.59641985    -6.18619986    -0.10420057
   54 O                    8.0000    -2.09941433     5.59868307     2.07139678
   55 O                    8.0000     6.19671170    -2.60071809     1.21406783
   56 H                    1.0000     2.40011382     1.34706390     3.49118066
   57 O                    8.0000    -4.68228930    -2.40105782    -3.57681360
   58 Si                  14.0000    -5.34550784    -2.78961189     0.50415306
   59 O                    8.0000     1.18264146    -0.62906533     1.50143054
   60 H                    1.0000    -4.76224327     3.30280280    -4.05881926
   61 H                    1.0000     2.89221391     1.93825693    -3.15362693
   62 O                    8.0000    -1.15881773     0.65608655     1.50693171
   63 O                    8.0000    -3.64031945     1.71698922     1.78538851
   64 H                    1.0000     7.58708322     3.91994700     1.16388974
   65 O                    8.0000     3.94377321    -4.13401411     0.74323010
   66 Si                  14.0000     4.61518943    -2.61191608     0.73778028
   67 H                    1.0000     3.34491730     4.83530036     5.07312455
   68 O                    8.0000    -1.48476041     7.23433572     4.17837820
   69 H                    1.0000    -8.12870674    -1.50744198    -3.40474808
   70 H                    1.0000    -7.08267848     2.57038209     1.55880920
   71 H                    1.0000     8.08804133     1.47411632    -3.52383891
   72 H                    1.0000    -3.27452767    -4.77002714     5.16402786
   73 H                    1.0000    -7.56971931    -3.89772640     1.30655164
   74 O                    8.0000     2.13294354    -5.56742456     2.10310085
   75 O                    8.0000    -1.69459936    -3.66191118    -0.68944227
   76 H                    1.0000     1.97466663    -2.88524241     4.17674267
   77 H                    1.0000    -2.34820791    -1.30172359     3.53092380
   78 O                    8.0000    -2.38945425     4.70903716     4.62429486
   79 O                    8.0000     0.06989027     5.05159649     3.58222610
   80 H                    1.0000    -4.51938248    -3.05422163    -4.25687194
   81 H                    1.0000    -2.10687572     0.14610360    -2.53449628
   82 H                    1.0000     3.92400456    -7.57841139    -0.20091048
   83 O                    8.0000    -5.05346346     0.04976190    -2.52781046
   84 O                    8.0000    -0.98677325    -2.53729422     3.62158066
   85 O                    8.0000    -4.79914278    -1.66395938     1.58180208
   86 O                    8.0000     7.18071439     1.50509335    -3.23134019
   87 H                    1.0000     4.31859041     1.16814389     2.14913594
   88 O                    8.0000     2.83823301     0.51521759     3.20982332
   89 O                    8.0000    -1.79345912     2.08789061     3.71083183
   90 H                    1.0000    -2.92888639    -1.96097414    -3.09152232
   91 O                    8.0000    -0.01920536    -5.00546208     3.63268802
   92 O                    8.0000     6.77740640     3.51052835     0.87244193
   93 O                    8.0000     2.64885420     4.61868513     4.45825104
   94 O                    8.0000     3.51626663    -6.77135286     0.10001497
   95 O                    8.0000    -4.12957778    -3.92935220     0.34894948
   96 H                    1.0000     0.20030067     2.09427132     3.66949559
   97 O                    8.0000     5.55763864     2.11790812    -1.11315687
   98 O                    8.0000     0.48442308    -2.81453072    -2.17267944
   99 H                    1.0000    -1.34701763     2.34905605    -2.45138173
  100 H                    1.0000     3.13777086    -4.47919600     5.28752648
  101 O                    8.0000    -7.21796171    -1.53381713    -3.12259477
  102 H                    1.0000     4.46987751     3.01880561    -4.34952451
  103 O                    8.0000     4.45095036    -2.02209700    -0.81267088
  104 O                    8.0000     4.53334647    -2.64560370    -3.45583696
  105 H                    1.0000     7.10686700    -2.54115296     1.49182493
  106 Si                  14.0000     5.63482242     1.47335317    -2.63764185
  107 O                    8.0000     0.63838231     1.16478420    -0.47250839
  108 O                    8.0000    -0.64322849    -1.17440419    -0.44078609
  109 O                    8.0000     3.66749919    -1.68717176     1.75525716
  110 Si                  14.0000     2.61020997     4.60337011     0.26968708
  111 O                    8.0000     1.68775826    -4.81456496    -0.50424077
  112 H                    1.0000    -1.91630562     2.93702412     4.17115722
  113 H                    1.0000    -0.14773974    -2.04806402     3.68761739
  114 Si                  14.0000    -1.46562959     5.68212465     3.60010440
  115 O                    8.0000     1.68415619     3.65296859    -0.74456679
  116 Si                  14.0000    -2.37879618     0.99801672     2.58632338
  117 H                    1.0000     2.52848538     7.09372125    -0.48740778
  118 Bi                  83.0000    -0.03525062    -0.02048920    -5.35150177

 Total times  cpu:     7817.9s     wall:     8080.1s
